/*--------------------------------*- C++ -*----------------------------------*\
  =========                 |
  \\      /  F ield         | OpenFOAM: The Open Source CFD Toolbox
   \\    /   O peration     | Website:  https://openfoam.org
    \\  /    A nd           | Version:  8
     \\/     M anipulation  |
\*---------------------------------------------------------------------------*/
FoamFile
{
    version     2.0;
    format      ascii;
    class       volScalarField;
    location    "500";
    object      epsilon;
}
// * * * * * * * * * * * * * * * * * * * * * * * * * * * * * * * * * * * * * //

dimensions      [0 2 -3 0 0 0 0];

internalField   nonuniform List<scalar> 
336
(
6.75127e+06
6.34508e+06
5.85032e+06
5.28945e+06
4.63349e+06
3.85426e+06
2.93489e+06
2.00968e+06
1.22972e+06
787188
607363
510312
6.67668e+06
6.26389e+06
5.76728e+06
5.20378e+06
4.54468e+06
3.76279e+06
2.85026e+06
1.95153e+06
1.22999e+06
842836
671045
556030
6.53922e+06
6.11586e+06
5.61685e+06
5.04952e+06
4.38655e+06
3.60396e+06
2.70988e+06
1.86479e+06
1.24693e+06
955541
824974
677237
6.35025e+06
5.91385e+06
5.41292e+06
4.84192e+06
4.17654e+06
3.39824e+06
2.53605e+06
1.77005e+06
1.29002e+06
1.12601e+06
1.08752e+06
917976
6.11897e+06
5.6679e+06
5.16617e+06
4.59243e+06
3.92742e+06
3.15998e+06
2.34335e+06
1.68275e+06
1.35888e+06
1.34295e+06
1.4587e+06
1.33809e+06
5.85277e+06
5.38588e+06
4.88482e+06
4.30957e+06
3.64838e+06
2.89892e+06
2.14065e+06
1.6154e+06
1.43037e+06
1.57865e+06
1.91665e+06
1.9852e+06
5.55755e+06
5.07386e+06
4.57505e+06
3.99947e+06
3.34554e+06
2.62069e+06
1.93648e+06
1.55458e+06
1.47727e+06
1.77043e+06
2.40002e+06
2.82196e+06
5.23802e+06
4.7366e+06
4.24149e+06
3.6662e+06
3.02227e+06
2.32641e+06
1.73282e+06
1.47276e+06
1.47187e+06
1.84746e+06
2.70436e+06
3.63954e+06
4.61618e+06
4.08067e+06
3.59456e+06
3.01951e+06
2.3966e+06
1.75996e+06
1.34449e+06
1.20946e+06
1.27954e+06
1.66237e+06
2.67347e+06
4.44488e+06
3.61821e+06
3.0294e+06
2.55918e+06
1.96472e+06
1.35173e+06
706115
414084
317103
299280
362275
594288
958719
2.56367e+06
1.9135e+06
1.45325e+06
781519
273457
73057.3
26628.4
17481.2
15450.5
17598.5
27073.4
40147.3
1.52276e+06
801977
403803
97876.7
13713.5
1367.63
314.928
226.085
185.7
170.317
201.003
283.265
765592
180227
43539.9
5730.46
951.705
723.019
442.472
278.774
166.423
82.8434
50.4212
38.2653
1.01128e+06
457483
266286
104583
37471.2
15296.1
5507.3
3212.95
1370.96
645.706
177.426
62.3781
1.96564e+06
1.38888e+06
1.11775e+06
740306
448968
206543
85329.2
37053.8
14105.3
6406.46
1566.83
420.887
3.04469e+06
2.41837e+06
2.07469e+06
1.69851e+06
1.41248e+06
1.08169e+06
693465
341404
151810
61143.7
17845.3
4349.54
4.10772e+06
3.45478e+06
3.0242e+06
2.6133e+06
2.31162e+06
2.06104e+06
1.84887e+06
1.55407e+06
1.02057e+06
517903
181757
47083.5
5.1068e+06
4.44873e+06
3.93079e+06
3.45532e+06
3.09531e+06
2.84059e+06
2.7009e+06
2.62617e+06
2.55318e+06
2.2384e+06
1.29822e+06
450066
5.96311e+06
5.3193e+06
4.7357e+06
4.18913e+06
3.75745e+06
3.44764e+06
3.30101e+06
3.27234e+06
3.38322e+06
3.65561e+06
3.84278e+06
2.90249e+06
6.52842e+06
5.90727e+06
5.29273e+06
4.69986e+06
4.21913e+06
3.85938e+06
3.67082e+06
3.62555e+06
3.76979e+06
4.22026e+06
5.15714e+06
6.08092e+06
8.45357e+06
5.34788e+06
3.17202e+06
1.34308e+06
318780
118973
85717.1
40185.1
1.41579e+06
561419
272682
38687.2
6166.37
612.54
323.695
164.183
53543.2
19614.9
10805.3
7814.94
99.1111
22.0123
21.127
19.9361
434.978
572.286
253.433
0.59168
20.1261
19.2374
19.6879
19.9031
35.052
25.5089
22.5866
19.449
19.3718
19.3811
19.7221
19.8629
28.219
23.1106
20.1776
19.611
19.3308
19.5011
19.6477
19.9219
54.9494
24.1872
20.098
19.517
19.3479
19.4833
19.677
19.8909
553.956
63.8652
22.817
19.63
19.4118
19.5123
19.6438
19.922
7881.06
1296.66
59.8317
53.2461
20.9361
19.9784
19.5803
19.9636
109883
27723.5
1775.17
1443.5
355.075
64.4745
23.0808
20.8024
1.19949e+06
458476
127079
66739.8
9521.58
1939.85
471.892
690.248
5.72152e+06
3.78124e+06
2.26939e+06
1.38197e+06
657524
154914
31128.5
10434.1
)
;

boundaryField
{
    walls
    {
        type            zeroGradient;
    }
    inlet
    {
        type            fixedValue;
        value           uniform 20;
    }
    outlet
    {
        type            inletOutlet;
        inletValue      uniform 0;
        value           nonuniform List<scalar> 
20
(
6.75127e+06
6.67668e+06
6.53922e+06
6.35025e+06
6.11897e+06
5.85277e+06
5.55755e+06
5.23802e+06
4.61618e+06
3.61821e+06
2.56367e+06
1.52276e+06
765592
1.01128e+06
1.96564e+06
3.04469e+06
4.10772e+06
5.1068e+06
5.96311e+06
6.52842e+06
)
;
    }
}


// ************************************************************************* //
