/*--------------------------------*- C++ -*----------------------------------*\
  =========                 |
  \\      /  F ield         | OpenFOAM: The Open Source CFD Toolbox
   \\    /   O peration     | Website:  https://openfoam.org
    \\  /    A nd           | Version:  8
     \\/     M anipulation  |
\*---------------------------------------------------------------------------*/
FoamFile
{
    version     2.0;
    format      ascii;
    class       volScalarField;
    location    "500";
    object      k;
}
// * * * * * * * * * * * * * * * * * * * * * * * * * * * * * * * * * * * * * //

dimensions      [0 2 -2 0 0 0 0];

internalField   nonuniform List<scalar> 
336
(
12216.6
11509.8
10581.5
9492.94
8225.95
6766.99
5151.46
3594.95
2326.08
1578.52
1253.21
1118.04
12120.6
11403.2
10470.7
9377.72
8105.89
6642.57
5032.19
3501.2
2293.61
1610.73
1298.71
1151.06
11939.7
11203
10262.8
9161.33
7881.42
6413.53
4819.01
3341.67
2244.83
1671.99
1409.87
1242.29
11684.7
10922.2
9971.91
8859.72
7570.9
6101.48
4535.65
3138.01
2191.25
1757.82
1590
1415.97
11364.7
10570.6
9609.12
8484.79
7187.81
5721.72
4198.2
2905.37
2137.54
1855.64
1821.65
1689.82
10986.7
10156
9182.74
8045.41
6741.92
5284.86
3817.05
2655.92
2082.43
1934.26
2069.18
2052.94
10556.5
9684.11
8698.98
7547.82
6239.66
4797.31
3396.45
2399.56
2007.22
1957.66
2282.35
2439.82
10078.6
9159.51
8162.46
6996.12
5684.66
4261.32
2943.44
2129.19
1878.54
1899.51
2374.67
2716.27
9124.63
8111.4
7093.5
5896.29
4580.04
3193.1
2066.25
1584.5
1478.74
1570.66
2177.6
2908.23
7497.62
6323.5
5287.19
4023.64
2696.48
1320.3
673.393
456.393
396.775
393.375
577.652
760.404
5680.59
4308.42
3262.15
1861.1
654.005
166.325
54.3265
32.1728
25.971
24.9022
34.3383
41.2315
3779.68
2140.74
1120.52
290.866
40.8226
4.62507
1.82255
1.61708
1.53396
1.45627
1.389
1.2805
2250.56
603.779
152.651
19.1327
3.73734
2.39564
2.0046
1.73399
1.6013
1.53145
1.51524
1.52385
2654.64
1236.51
730.943
283.119
103.815
32.2979
12.8638
5.36345
3.30493
1.94071
1.57062
1.41362
4320.36
3061.09
2452.66
1660.64
1006.71
444.176
177.73
61.2591
23.9958
8.26669
3.26193
1.49021
6093.32
4894.19
4143.78
3336.51
2672.24
1983.85
1235.59
572.99
237.579
82.8298
24.2069
5.49193
7730.81
6589.3
5719.37
4865.48
4152.84
3502.95
2912
2295.92
1429.82
663.691
220.178
49.7478
9159.89
8082.31
7119.82
6198.72
5414.4
4740.34
4184.4
3731.69
3242.43
2570.16
1379.3
423.108
10293.1
9281.99
8262.32
7274.43
6419.27
5690.62
5107.34
4694.27
4349.87
4051.58
3607.61
2277.65
10985.7
10027.7
8986.66
7958.05
7055.75
6282.7
5662.9
5236.78
4931.59
4780.16
4715.62
4445.55
4578.26
2480.66
1415.28
542.36
129.08
56.2499
42.4301
29.5348
1022.55
360.882
124.734
30.1213
3.28699
1.38718
1.13032
1.09016
50.8254
15.9994
3.27514
0.945431
0.994884
0.986504
0.990777
0.99838
1.22326
1.19534
1.00755
0.994647
0.984604
0.984488
0.992378
0.996747
1.41711
1.10467
1.02677
0.994295
0.984888
0.984604
0.99261
0.996222
1.37946
1.09551
1.02039
0.993913
0.983957
0.986362
0.991402
0.997393
1.18422
1.10038
1.01875
0.990813
0.984375
0.98567
0.992446
0.996327
1.51794
1.06299
1.01342
0.990686
0.983205
0.986595
0.991596
0.997187
8.26788
1.52025
1.11765
0.964718
0.979503
0.987162
0.991081
0.997668
91.1639
14.843
5.02745
1.03592
0.932324
0.959406
0.990122
0.996393
811.875
254.65
93.7836
26.2477
8.53857
1.30694
0.858363
0.84437
3110.37
1764.12
1033.63
598.73
279.888
62.5393
16.5596
9.58066
)
;

boundaryField
{
    walls
    {
        type            zeroGradient;
    }
    inlet
    {
        type            fixedValue;
        value           uniform 1;
    }
    outlet
    {
        type            inletOutlet;
        inletValue      uniform 0;
        value           nonuniform List<scalar> 
20
(
12216.6
12120.6
11939.7
11684.7
11364.7
10986.7
10556.5
10078.6
9124.63
7497.62
5680.59
3779.68
2250.56
2654.64
4320.36
6093.32
7730.81
9159.89
10293.1
10985.7
)
;
    }
}


// ************************************************************************* //
