/*--------------------------------*- C++ -*----------------------------------*\
  =========                 |
  \\      /  F ield         | OpenFOAM: The Open Source CFD Toolbox
   \\    /   O peration     | Website:  https://openfoam.org
    \\  /    A nd           | Version:  8
     \\/     M anipulation  |
\*---------------------------------------------------------------------------*/
FoamFile
{
    version     2.0;
    format      ascii;
    class       volScalarField;
    location    "500";
    object      nut;
}
// * * * * * * * * * * * * * * * * * * * * * * * * * * * * * * * * * * * * * //

dimensions      [0 2 -1 0 0 0 0];

internalField   nonuniform List<scalar> 
336
(
1.98955
1.87906
1.72248
1.53332
1.31433
1.06928
0.813788
0.578765
0.395993
0.284881
0.232726
0.220457
1.98031
1.86832
1.7109
1.52096
1.30119
1.05537
0.7996
0.565328
0.384928
0.277043
0.226213
0.214457
1.96201
1.84695
1.68763
1.49593
1.27447
1.0272
0.771271
0.53894
0.363719
0.263304
0.216852
0.205093
1.93502
1.81547
1.65336
1.45903
1.23515
0.985958
0.730069
0.500684
0.33499
0.246973
0.209219
0.19657
1.89966
1.77426
1.60857
1.41086
1.18394
0.932419
0.676912
0.451466
0.302614
0.230765
0.20474
0.192061
1.85617
1.72356
1.5536
1.35178
1.12127
0.867108
0.612565
0.393
0.272856
0.213299
0.201046
0.191069
1.80468
1.6635
1.48862
1.28199
1.04736
0.790356
0.536141
0.333346
0.245455
0.194821
0.19534
0.189848
1.74533
1.59412
1.41373
1.20155
0.962316
0.702497
0.449986
0.277038
0.215782
0.175772
0.187665
0.18245
1.62327
1.45112
1.25985
1.03625
0.787744
0.521392
0.285793
0.186826
0.153805
0.133561
0.159633
0.171253
1.39828
1.18796
0.983087
0.741618
0.484113
0.222184
0.0985579
0.059118
0.0473427
0.038443
0.0505333
0.05428
1.13283
0.873074
0.659037
0.398879
0.140772
0.0340795
0.00997518
0.00532903
0.00392894
0.00317133
0.00391974
0.00381105
0.844347
0.514293
0.279843
0.0777944
0.0109369
0.0014077
0.000949268
0.00104096
0.0011404
0.00112064
0.000863866
0.000520968
0.595426
0.182045
0.0481673
0.0057492
0.00132089
0.00071439
0.000817358
0.000970693
0.00138668
0.00254795
0.00409818
0.0054616
0.627169
0.300791
0.180577
0.0689798
0.0258861
0.00613774
0.00270424
0.000805799
0.000717037
0.000524963
0.00125132
0.00288322
0.854629
0.607201
0.484364
0.335262
0.20316
0.0859691
0.0333169
0.00911485
0.00367395
0.000960035
0.000611179
0.000474865
1.09751
0.891418
0.744875
0.589873
0.455001
0.327458
0.198137
0.0865499
0.0334626
0.0100987
0.00295528
0.000624093
1.30946
1.1311
0.973485
0.815273
0.671455
0.535828
0.41278
0.305272
0.180287
0.0765466
0.0240049
0.00473066
1.47868
1.32153
1.16065
1.00082
0.852393
0.711956
0.583446
0.477234
0.370598
0.265599
0.13189
0.0357988
1.59904
1.45771
1.29737
1.13689
0.987007
0.845355
0.711188
0.606065
0.503343
0.404139
0.304815
0.160858
1.66376
1.53199
1.37328
1.21275
1.06195
0.920487
0.786243
0.680765
0.58063
0.487291
0.38807
0.292498
0.223153
0.103561
0.0568314
0.0197113
0.00470399
0.00239352
0.00189026
0.00195364
0.0664674
0.0208779
0.00513513
0.00211069
0.000157692
0.000282732
0.000355227
0.000651467
0.0043421
0.00117452
8.93443e-05
1.02938e-05
0.000898804
0.00397902
0.00418174
0.00449982
0.000309608
0.000224705
0.000360505
0.150485
0.00433516
0.00453438
0.00450191
0.00449254
0.00515626
0.00430545
0.00420089
0.00457485
0.00450658
0.00450181
0.00449621
0.00449689
0.00606905
0.00467377
0.0046441
0.00453356
0.00450759
0.00449009
0.00450227
0.00449412
0.00229693
0.00450548
0.00464759
0.00452702
0.00450743
0.00448791
0.00450501
0.0044915
0.000374347
0.00159233
0.004051
0.00449981
0.00448193
0.00448964
0.00450491
0.00449223
0.000780632
0.000160415
0.001879
0.0015731
0.00412437
0.00438994
0.00451483
0.00448719
0.00680706
0.000715217
0.00128143
6.69081e-05
0.000220321
0.00128487
0.00382269
0.00429527
0.0494566
0.0127296
0.00622908
0.000929055
0.000689134
7.92475e-05
0.000140521
9.29616e-05
0.152179
0.0740739
0.0423705
0.0233456
0.0107226
0.00227227
0.00079284
0.000791733
)
;

boundaryField
{
    walls
    {
        type            zeroGradient;
    }
    inlet
    {
        type            fixedValue;
        value           uniform 0;
    }
    outlet
    {
        type            inletOutlet;
        inletValue      uniform 0;
        value           nonuniform List<scalar> 
20
(
1.98955
1.98031
1.96201
1.93502
1.89966
1.85617
1.80468
1.74533
1.62327
1.39828
1.13283
0.844347
0.595426
0.627169
0.854629
1.09751
1.30946
1.47868
1.59904
1.66376
)
;
    }
}


// ************************************************************************* //
