/*--------------------------------*- C++ -*----------------------------------*\
  =========                 |
  \\      /  F ield         | OpenFOAM: The Open Source CFD Toolbox
   \\    /   O peration     | Website:  https://openfoam.org
    \\  /    A nd           | Version:  8
     \\/     M anipulation  |
\*---------------------------------------------------------------------------*/
FoamFile
{
    version     2.0;
    format      ascii;
    class       volScalarField;
    location    "500";
    object      p;
}
// * * * * * * * * * * * * * * * * * * * * * * * * * * * * * * * * * * * * * //

dimensions      [0 2 -2 0 0 0 0];

internalField   nonuniform List<scalar> 
336
(
769.286
2556.12
4333.32
6101.94
7816.14
9483.06
11090.6
12346.5
13192.6
12973.2
12418.8
10197.9
792.454
2611.23
4406.49
6189.24
7914.75
9582.82
11175.5
12398.1
13207.3
12953.9
12397.5
10227.9
811.705
2658.42
4469.31
6263.89
7998.04
9665.86
11245.9
12443.6
13226.3
12945
12381.9
10219.8
828.974
2701.35
4526.59
6331.25
8072.29
9740.55
11311.6
12494.2
13256.9
12952.4
12371.4
10173.8
845.957
2743.82
4582.86
6396.85
8144.35
9813.4
11379
12551.8
13292.6
12966.6
12366.4
10095.6
863.203
2787.07
4639.33
6462.13
8215.98
9885.58
11449
12609.8
13323.2
12981.3
12371
9972.13
880.93
2831.58
4696.57
6527.74
8287.35
9959.23
11522
12661.5
13343.9
12993.9
12387.1
9766.18
900.326
2877.14
4754.58
6592.31
8357.17
10037.6
11596.2
12700.7
13346.3
12997.5
12384.7
9613.68
942.413
2968.91
4865.93
6713.34
8490.98
10181.5
11693
12712.2
13287.8
12956.1
12289.6
10096.6
1012.91
3131.93
5051
6924.69
8735.37
10369.6
11696.7
12541
13078.5
12844.9
12305.8
10853.3
1105.2
3330.05
5273.19
7197.07
8878.53
10294.6
11444.6
12239
12754.6
12723.6
12391.4
11667.4
1241.64
3597.35
5511.28
7240.67
8747.73
10114.1
11184.5
11958.6
12455.7
12594
12403.4
12128.2
1377.96
3703.5
5526.84
7174.15
8635.48
9908.01
10949.6
11703.6
12207.3
12483
12481.1
12459.1
1352.72
3621.54
5487.39
7100.38
8507.67
9734.05
10726.1
11481.7
11993.8
12349.1
12534.9
12776.2
1242.6
3423.42
5303.55
6951.67
8384.2
9583.46
10538.6
11275.4
11819.9
12225.9
12558.6
13006.8
1160.83
3247.75
5131.06
6738.02
8155.83
9378.84
10366.9
11108.4
11676.8
12142.1
12556.2
13187.8
1092.95
3095.57
4981.68
6583.61
7981.07
9165.61
10120.5
10897.3
11546.8
12063.3
12566
13330
1035.96
2967.27
4836.81
6439.4
7833.19
9011.09
9959.67
10695.6
11325
11946.2
12581.1
13463.3
983.573
2846.69
4697.67
6294.7
7690.99
8863.8
9816.88
10554.8
11172.2
11751.7
12421.3
13512.3
923.527
2705.39
4538.02
6133.4
7531.17
8702.85
9663.52
10404.1
11007.7
11567.4
12165.6
13264
12096.8
14925.7
16406
17022.7
17147.1
17158.7
17175.1
17195.7
12357.7
14990.8
16280.1
16916.8
17100.1
17146.9
17170.1
17190.7
12845.6
14963
16173.7
16802.5
17051.1
17129.7
17165.1
17184.6
13359.3
15062.7
16129.8
16751.3
17015.3
17120.3
17161.6
17180.5
13727.9
15182
16149.9
16724.1
16999.4
17113.4
17159.9
17178.3
14025.2
15317.6
16203.5
16731.6
16996.6
17114.7
17160
17178.5
14296.5
15465
16294.3
16756
17015.6
17119.4
17164.4
17180.2
14519.1
15650.8
16408.3
16803.2
17045.6
17131.7
17171.2
17183.8
14730.8
15861.4
16548.1
16867.5
17089.4
17149.7
17180.9
17189.7
14908.1
16119.1
16697.6
16963.2
17135.4
17175.6
17191.2
17197.4
15113.2
16417.4
16875.6
17080.6
17190.3
17205.8
17205.2
17205.5
15127.8
16525.6
17025
17166.3
17249.6
17231.5
17213.6
17211.6
)
;

boundaryField
{
    walls
    {
        type            zeroGradient;
    }
    inlet
    {
        type            zeroGradient;
    }
    outlet
    {
        type            fixedValue;
        value           uniform 0;
    }
}


// ************************************************************************* //
