/*--------------------------------*- C++ -*----------------------------------*\
  =========                 |
  \\      /  F ield         | OpenFOAM: The Open Source CFD Toolbox
   \\    /   O peration     | Website:  https://openfoam.org
    \\  /    A nd           | Version:  8
     \\/     M anipulation  |
\*---------------------------------------------------------------------------*/
FoamFile
{
    version     2.0;
    format      ascii;
    class       surfaceScalarField;
    location    "500";
    object      phi;
}
// * * * * * * * * * * * * * * * * * * * * * * * * * * * * * * * * * * * * * //

dimensions      [0 3 -1 0 0 0 0];

internalField   nonuniform List<scalar> 
632
(
-0.0140633
6.15154e-05
-0.0141308
6.73228e-05
-0.0142366
0.000105347
-0.0143933
0.000156752
-0.0145785
0.00018309
-0.0145956
1.52366e-05
-0.0139828
-0.000615164
-0.0119224
-0.00206698
-0.00735958
-0.00457189
0.000136737
-0.00748646
0.00668135
-0.00654385
0.0067004
-0.0410881
0.000151636
-0.0411944
0.000173292
-0.0414092
0.000319732
-0.0417432
0.000490938
-0.0420887
0.00052407
-0.0418707
-0.000205705
-0.0399361
-0.00255296
-0.034251
-0.00776614
-0.022782
-0.0160382
-0.00387893
-0.0263612
0.011839
-0.0222956
0.0186246
-0.0671384
0.000219027
-0.0672172
0.000251914
-0.067476
0.000577327
-0.0679007
0.000916245
-0.0682789
0.000899539
-0.0677002
-0.00078436
-0.0645085
-0.00574372
-0.0559036
-0.0163726
-0.0394659
-0.0324822
-0.0126831
-0.0531345
0.00994659
-0.0449414
0.0286248
-0.0923233
0.000240224
-0.0923362
0.000264262
-0.0926088
0.000849414
-0.0930843
0.00139128
-0.0934426
0.00125202
-0.092498
-0.00173245
-0.0882727
-0.0099742
-0.0776566
-0.0270181
-0.0581275
-0.0520277
-0.0268656
-0.0843604
0.00108388
-0.0729298
0.0297594
-0.116735
0.000202183
-0.116669
0.000197984
-0.116956
0.00113484
-0.117485
0.00192161
-0.117837
0.00160093
-0.116623
-0.00294424
-0.111768
-0.0148237
-0.100219
-0.0385507
-0.079509
-0.0727224
-0.046768
-0.117089
-0.0155094
-0.104212
0.0143149
-0.140458
0.000105667
-0.140323
6.24096e-05
-0.140653
0.0014644
-0.141283
0.00255023
-0.141708
0.00202009
-0.140429
-0.00422649
-0.135568
-0.0196954
-0.124233
-0.0499308
-0.104137
-0.0928636
-0.0725101
-0.148678
-0.040329
-0.136416
-0.0259981
-0.163566
-4.30769e-05
-0.163396
-0.000107934
-0.163834
0.00190254
-0.164657
0.00337588
-0.165313
0.00267046
-0.164322
-0.00521774
-0.160263
-0.0237511
-0.150151
-0.0600233
-0.132155
-0.110839
-0.103929
-0.176873
-0.073598
-0.166762
-0.0995952
-0.186136
-0.000215157
-0.185987
-0.000257966
-0.186638
0.00255046
-0.187803
0.004539
-0.188941
0.00380599
-0.188803
-0.00535576
-0.186391
-0.02618
-0.178336
-0.0681262
-0.163298
-0.125915
-0.140529
-0.199627
-0.11427
-0.193026
-0.213823
-0.604527
-0.000407837
-0.604488
-0.000298515
-0.607977
0.00603912
-0.613744
0.0103095
-0.620994
0.011046
-0.628878
0.00252327
-0.633085
-0.0219804
-0.624992
-0.0761904
-0.601275
-0.149589
-0.573514
-0.227354
-0.516326
-0.250206
-0.26589
-0.46429
-0.754658
0.000145016
-0.757087
0.00212651
-0.76644
0.0153874
-0.781518
0.0253834
-0.806468
0.0359924
-0.836532
0.0325931
-0.849854
-0.00868706
-0.849486
-0.0766088
-0.842713
-0.156388
-0.844778
-0.225279
-0.836781
-0.25821
-0.248031
-0.854566
-0.898555
0.00299115
-0.906319
0.00988941
-0.926232
0.0352995
-0.955769
0.0549253
-0.979237
0.0594492
-0.975124
0.0284754
-0.954336
-0.0294793
-0.938976
-0.0919318
-0.929801
-0.165509
-0.931441
-0.223605
-0.940793
-0.248864
-0.234412
-0.954461
-1.03239
0.0112671
-1.04847
0.0259703
-1.06347
0.050292
-1.06109
0.05254
-1.0322
0.030552
-0.998028
-0.00569554
-0.972262
-0.0552643
-0.95269
-0.111532
-0.943788
-0.174435
-0.939211
-0.228174
-0.936319
-0.251738
-0.226705
-0.943986
-1.12462
0.0236827
-1.13432
0.0356687
-1.11212
0.0280894
-1.07334
0.0137632
-1.03575
-0.00705025
-1.00292
-0.0385214
-0.977418
-0.0807672
-0.959088
-0.129832
-0.948798
-0.18468
-0.941706
-0.235239
-0.936486
-0.25697
-0.233628
-0.929605
-1.07884
0.0269321
-1.07936
0.0361882
-1.07285
0.0215717
-1.05783
-0.00125138
-1.0338
-0.0310908
-1.00627
-0.0660534
-0.982696
-0.10434
-0.965175
-0.147345
-0.952911
-0.196945
-0.944069
-0.244071
-0.932587
-0.268405
-0.247233
-0.918956
-0.94784
0.0215685
-0.940746
0.0290941
-0.940192
0.0210147
-0.948922
0.00747891
-0.963642
-0.0163759
-0.97443
-0.0552597
-0.974009
-0.104755
-0.964963
-0.156363
-0.955001
-0.20688
-0.944691
-0.254354
-0.930871
-0.282229
-0.26739
-0.910735
-0.800573
0.014588
-0.791628
0.0201485
-0.787964
0.0173491
-0.791202
0.0107153
-0.804771
-0.0028102
-0.834127
-0.0259002
-0.878182
-0.0606888
-0.917746
-0.116775
-0.937496
-0.187117
-0.938787
-0.253062
-0.928014
-0.292992
-0.290123
-0.905266
-0.644991
0.00813663
-0.636098
0.0112546
-0.630627
0.0118779
-0.629095
0.00918357
-0.634648
0.00274299
-0.651646
-0.00889694
-0.685172
-0.0271529
-0.743722
-0.0582081
-0.820885
-0.10995
-0.880604
-0.193333
-0.903941
-0.269657
-0.294512
-0.899575
-0.480129
0.00339305
-0.473314
0.00443879
-0.46738
0.0059443
-0.463518
0.0053225
-0.463783
0.00300971
-0.471166
-0.00150872
-0.489461
-0.00884993
-0.525007
-0.0226518
-0.588128
-0.0468248
-0.691576
-0.0898749
-0.797879
-0.163364
-0.236588
-0.855827
-0.302858
0.000700507
-0.299103
0.000683514
-0.294711
0.00155183
-0.290962
0.00157488
-0.289142
0.00119094
-0.290878
0.000231434
-0.298367
-0.00135485
-0.316184
-0.00482731
-0.351874
-0.0111293
-0.418483
-0.0232605
-0.536421
-0.0454364
-0.0940859
-0.678949
-0.10871
-0.108027
-0.106475
-0.1049
-0.103709
-0.103477
-0.104831
-0.109658
-0.120787
-0.144048
-0.189487
-0.283576
-0.46945
0.00515174
-0.58868
0.119181
-0.691564
0.102999
-0.762315
0.070731
-0.7891
0.0267731
-0.794646
0.00550347
-0.797123
0.00246145
0.00286977
-0.85419
0.00494796
-0.834989
0.100003
-0.817244
0.0852843
-0.805583
0.0590284
-0.801299
0.0225198
-0.801229
0.00548489
-0.800869
0.00210751
0.00196112
-0.917159
-0.0323368
-0.858213
0.041045
-0.826754
0.0538785
-0.80931
0.0415038
-0.802774
0.0159752
-0.801347
0.00400907
-0.800775
0.00151408
0.00119623
-0.902975
-0.0732036
-0.856302
-0.00564031
-0.829159
0.0267854
-0.810151
0.0224695
-0.804085
0.00991314
-0.801495
0.00145507
-0.800476
0.000498217
0.000686592
-0.891234
-0.111516
-0.854009
-0.0428666
-0.828455
0.00124225
-0.811326
0.00520519
-0.80432
0.00288585
-0.80155
-0.00135883
-0.800586
-0.00047877
0.000108103
-0.882285
-0.148128
-0.850061
-0.0751046
-0.827716
-0.0210236
-0.811324
-0.0111948
-0.804866
-0.00358384
-0.80141
-0.00478731
-0.800435
-0.00145919
-0.00035382
-0.873269
-0.185546
-0.846572
-0.101789
-0.824553
-0.0430429
-0.811129
-0.0247422
-0.804498
-0.0102201
-0.801215
-0.00811013
-0.800325
-0.00236539
-0.00067784
-0.865357
-0.225428
-0.840648
-0.126497
-0.822368
-0.0613012
-0.810206
-0.0369427
-0.803946
-0.0164917
-0.801044
-0.0110175
-0.800233
-0.00319411
-0.000930126
-0.859712
-0.265317
-0.834844
-0.15136
-0.818996
-0.0771526
-0.809106
-0.0468826
-0.802949
-0.0225977
-0.800733
-0.0132544
-0.800081
-0.00387966
-0.00102464
-0.852069
-0.269106
-0.826976
-0.176458
-0.815191
-0.0889571
-0.807901
-0.0541978
-0.801327
-0.0291206
-0.800325
-0.0142675
-0.800041
-0.00418911
-0.00107948
-0.778101
-0.169987
-0.801656
-0.152915
-0.80519
-0.0854445
-0.804289
-0.0551176
-0.800419
-0.0329525
-0.799545
-0.0151492
-0.80005
-0.00370797
-0.00114398
-0.453565
-0.606482
-0.691929
-0.747042
-0.779995
-0.795147
-0.798856
)
;

boundaryField
{
    walls
    {
        type            calculated;
        value           uniform 0;
    }
    inlet
    {
        type            calculated;
        value           nonuniform List<scalar> 
12
(
-0.8
-0.8
-0.8
-0.8
-0.8
-0.8
-0.8
-0.8
-0.8
-0.8
-0.8
-0.8
)
;
    }
    outlet
    {
        type            calculated;
        value           nonuniform List<scalar> 
20
(
0.0140017
0.0409978
0.0670706
0.0923022
0.116772
0.140554
0.163714
0.186307
0.604718
0.754104
0.895707
1.02411
1.1122
1.07559
0.953203
0.807553
0.651442
0.484872
0.305551
0.109411
)
;
    }
}


// ************************************************************************* //
