/*--------------------------------*- C++ -*----------------------------------*\
  =========                 |
  \\      /  F ield         | OpenFOAM: The Open Source CFD Toolbox
   \\    /   O peration     | Website:  https://openfoam.org
    \\  /    A nd           | Version:  8
     \\/     M anipulation  |
\*---------------------------------------------------------------------------*/
FoamFile
{
    version     2.0;
    format      ascii;
    class       volVectorField;
    location    "500";
    object      U;
}
// * * * * * * * * * * * * * * * * * * * * * * * * * * * * * * * * * * * * * //

dimensions      [0 1 -1 0 0 0 0];

internalField   nonuniform List<vector> 
336
(
(-7.00796 0.00728662 8.78302e-18)
(-7.04813 0.0160287 -6.29583e-18)
(-7.08225 0.0227653 -8.07339e-18)
(-7.15283 0.0305536 -8.17184e-17)
(-7.23989 0.0409314 -1.01965e-16)
(-7.33841 0.0526588 -1.08732e-16)
(-7.23611 0.0591688 -1.05863e-16)
(-6.72798 0.0491021 -3.08702e-16)
(-5.07724 0.00166391 -1.84078e-16)
(-2.37845 -0.0571685 -4.15763e-16)
(2.79332 -0.0855214 3.18737e-17)
(3.01946 0.216671 -6.97903e-17)
(-20.509 0.00704252 2.62782e-17)
(-20.5682 0.00792675 -1.9442e-17)
(-20.6259 0.0128305 -2.36466e-17)
(-20.7809 0.0192529 -2.48274e-16)
(-20.9611 0.0217477 -3.07684e-16)
(-21.1268 -0.00201462 -3.28343e-16)
(-20.7112 -0.0851728 -3.17605e-16)
(-19.1974 -0.275402 -9.38209e-16)
(-14.8743 -0.589717 -5.50483e-16)
(-8.06406 -0.969521 -1.26569e-15)
(4.60037 -0.820725 1.10755e-16)
(5.94853 0.81862 -2.15866e-16)
(-33.545 0.0123778 4.47189e-17)
(-33.5823 0.0139704 -3.38335e-17)
(-33.635 0.0278763 -3.62726e-17)
(-33.8386 0.0434774 -4.22009e-16)
(-34.0604 0.0444971 -5.18091e-16)
(-34.2172 -0.0291786 -5.54219e-16)
(-33.4489 -0.255554 -5.49108e-16)
(-31.0313 -0.749756 -1.59629e-15)
(-24.683 -1.51223 -9.16655e-16)
(-14.9552 -2.48129 -1.63702e-15)
(2.70327 -2.089 2.28319e-16)
(5.91822 1.61339 -3.85406e-16)
(-46.1605 0.0158298 6.07867e-17)
(-46.1514 0.0179922 -4.99624e-17)
(-46.1852 0.0463853 -6.56375e-17)
(-46.4213 0.0744827 -5.57419e-16)
(-46.6611 0.07008 -7.36073e-16)
(-46.7798 -0.0770152 -7.9137e-16)
(-45.6822 -0.499773 -8.19625e-16)
(-42.5596 -1.38847 -2.3364e-15)
(-34.8938 -2.7082 -1.34366e-15)
(-23.4224 -4.42406 -2.06241e-15)
(-2.99251 -3.78397 -2.64353e-16)
(2.68458 2.10985 -5.92635e-16)
(-58.3954 0.0154124 7.54106e-17)
(-58.3282 0.0163245 -4.67561e-17)
(-58.3418 0.0645671 -1.11595e-16)
(-58.6119 0.107141 -7.02649e-16)
(-58.8708 0.092835 -9.64557e-16)
(-58.9641 -0.149934 -1.04291e-15)
(-57.6203 -0.804 -1.0719e-15)
(-54.1102 -2.12646 -2.93948e-15)
(-45.8906 -4.04953 -1.89407e-15)
(-33.8271 -6.56033 -2.55335e-15)
(-12.4703 -5.75785 -6.94125e-16)
(-4.51285 1.82759 -8.46816e-16)
(-70.2861 0.0108828 9.30369e-17)
(-70.1592 0.00942172 -4.12197e-17)
(-70.1644 0.0839258 -1.49454e-16)
(-70.4866 0.143976 -8.57827e-16)
(-70.7935 0.116069 -1.20777e-15)
(-70.9123 -0.236283 -1.31195e-15)
(-69.474 -1.13353 -1.44204e-15)
(-66.049 -2.89201 -3.25169e-15)
(-57.9539 -5.41137 -2.52141e-15)
(-46.4117 -8.69663 -3.16575e-15)
(-25.5911 -7.85888 -1.0637e-15)
(-16.3173 0.184947 -1.14405e-15)
(-81.8657 0.00233171 1.14612e-16)
(-81.6873 -0.00120749 -3.48201e-17)
(-81.7096 0.107702 -1.76259e-16)
(-82.122 0.190138 -9.67904e-16)
(-82.5325 0.148232 -1.46675e-15)
(-82.778 -0.318424 -1.59889e-15)
(-81.4925 -1.43813 -1.94908e-15)
(-78.717 -3.60805 -3.40386e-15)
(-71.1943 -6.65964 -3.14784e-15)
(-61.2112 -10.6579 -3.33439e-15)
(-42.1302 -9.85438 -1.39151e-15)
(-33.2136 -3.99393 -1.47733e-15)
(-93.1647 -0.00904484 1.36478e-16)
(-92.9536 -0.014439 -3.15591e-17)
(-93.0354 0.139695 -2.15759e-16)
(-93.599 0.249719 -1.07469e-15)
(-94.2004 0.196483 -1.74039e-15)
(-94.7355 -0.359658 -1.89858e-15)
(-93.9891 -1.63145 -2.40949e-15)
(-92.3299 -4.16215 -3.38961e-15)
(-85.6909 -7.70384 -3.69313e-15)
(-77.9353 -12.2966 -3.79655e-15)
(-61.7483 -11.7426 -1.67797e-15)
(-55.0233 -10.7674 -1.82682e-15)
(-113.422 -0.0282992 1.86886e-16)
(-113.202 -0.0388019 -3.34685e-17)
(-113.495 0.222115 -2.57733e-16)
(-114.486 0.387126 -1.26639e-15)
(-115.652 0.325843 -2.26268e-15)
(-117.163 -0.2883 -2.46116e-15)
(-118.345 -1.67502 -3.22725e-15)
(-118.928 -4.82044 -4.00929e-15)
(-114.643 -9.39363 -4.39446e-15)
(-111.651 -14.9365 -4.93183e-15)
(-102.028 -15.8684 -2.10642e-15)
(-98.4912 -19.63 -2.41383e-15)
(-141.43 -0.0365441 2.99347e-16)
(-141.452 -0.0138971 -3.16194e-17)
(-142.503 0.543821 -3.70886e-16)
(-144.898 0.903636 -1.70215e-15)
(-148.078 1.39364 -3.00006e-15)
(-154.221 1.25934 -3.1459e-15)
(-159.162 -0.665031 -3.66229e-15)
(-159.691 -5.36321 -3.63592e-15)
(-158.282 -10.4066 -3.75036e-15)
(-158.292 -14.832 -3.66284e-15)
(-158.004 -16.2555 -3.54563e-15)
(-160.91 -15.5189 -4.32187e-15)
(-167.953 0.0259527 4.97878e-16)
(-168.862 0.240738 6.7858e-17)
(-171.115 1.4951 -2.65905e-16)
(-176.073 2.95223 -1.86655e-15)
(-182.309 3.67561 -3.13757e-15)
(-184.636 2.85083 -2.9339e-15)
(-181.151 -1.44782 -2.89247e-15)
(-176.734 -5.24328 -2.96141e-15)
(-175.054 -10.6502 -3.23212e-15)
(-173.812 -14.7033 -3.64549e-15)
(-175.677 -16.9065 -1.00046e-15)
(-179.975 -15.3284 -3.40022e-15)
(-191.956 0.421511 8.71081e-16)
(-194.981 1.42733 6.05736e-16)
(-198.348 3.49546 6.74681e-16)
(-200.233 4.22038 1.78866e-16)
(-197.854 3.41587 -4.20191e-16)
(-189.041 0.383563 7.66767e-16)
(-185.263 -2.55386 -2.56535e-16)
(-179.307 -6.83434 3.41519e-16)
(-177.861 -11.0481 -6.13073e-16)
(-176.127 -14.6538 -1.00184e-15)
(-176.431 -16.0344 -5.57147e-17)
(-177.772 -15.531 -6.97014e-16)
(-208.327 1.27581 1.33064e-15)
(-213.11 2.2007 1.91642e-15)
(-212.588 2.81219 3.55236e-15)
(-204.406 2.18154 4.12746e-15)
(-198.069 0.699072 6.28927e-15)
(-190.316 -1.31128 5.08877e-15)
(-185.76 -4.59759 7.0213e-15)
(-180.812 -7.83182 2.82255e-15)
(-178.825 -11.7319 7.46928e-15)
(-176.973 -15.0387 4.55678e-15)
(-176.508 -16.3385 4.35276e-15)
(-176.409 -14.431 5.01375e-15)
(-201.46 1.7072 9.16442e-16)
(-202.956 2.19608 6.74991e-16)
(-201.949 1.03695 1.44923e-16)
(-200.366 -0.199981 -8.95544e-16)
(-196.31 -1.65223 -1.23523e-15)
(-191.326 -3.64939 -1.85528e-15)
(-186.094 -6.05039 -2.19125e-15)
(-182.394 -9.12181 -4.72486e-15)
(-179.597 -12.4252 -2.65735e-15)
(-177.761 -15.7506 -4.38977e-15)
(-176.584 -17.1409 -1.67879e-15)
(-174.354 -15.6591 -1.79387e-15)
(-178.575 1.64991 1.01117e-15)
(-176.839 2.18246 1.19147e-15)
(-175.953 1.39742 1.06645e-15)
(-176.6 -0.0361575 1.41569e-15)
(-179.183 -2.09659 2.29006e-15)
(-182.166 -4.68603 3.95127e-15)
(-183.355 -7.53278 2.1994e-15)
(-181.944 -10.3004 1.42678e-15)
(-179.865 -13.3321 2.3615e-15)
(-178.303 -16.1895 2.73356e-17)
(-176.274 -17.9133 1.94933e-15)
(-173.708 -16.6739 -7.20546e-16)
(-151.315 1.18836 9.94435e-16)
(-148.902 1.62649 1.19476e-15)
(-147.901 1.33135 1.35471e-15)
(-147.609 0.763071 1.37497e-15)
(-149.057 -0.44026 7.51121e-16)
(-152.693 -2.67374 3.30231e-16)
(-160.144 -5.88743 -1.41764e-15)
(-169.274 -9.90997 -1.4938e-15)
(-174.919 -13.8048 -6.22224e-16)
(-176.628 -16.9842 -1.19013e-16)
(-175.777 -18.9759 8.90038e-16)
(-172.846 -18.2581 1.29638e-15)
(-122.074 0.720294 8.27076e-16)
(-119.82 1.00867 1.07786e-15)
(-118.643 0.966373 8.81857e-16)
(-117.844 0.723993 7.96583e-16)
(-118.042 0.126025 5.35526e-16)
(-119.933 -0.857614 7.52695e-16)
(-124.513 -2.44279 -6.22926e-16)
(-132.506 -5.54085 -2.89191e-15)
(-146.347 -10.3966 -2.36644e-15)
(-161.52 -15.9334 -5.3621e-15)
(-168.923 -19.0451 -3.64197e-15)
(-171.079 -19.5982 -3.98851e-15)
(-90.8626 0.348921 6.09258e-16)
(-89.2115 0.480933 8.45794e-16)
(-88.1901 0.583881 5.45055e-16)
(-87.0899 0.490303 4.82504e-16)
(-86.7045 0.261634 3.84271e-16)
(-87.1977 -0.19735 4.53789e-16)
(-89.525 -0.898334 2.90508e-17)
(-94.1353 -2.13351 -2.25885e-15)
(-102.818 -4.42354 -2.54941e-15)
(-117.63 -9.06383 -4.35621e-15)
(-141.856 -15.373 -2.00593e-15)
(-157.765 -18.4701 -4.22745e-15)
(-57.2543 0.106021 3.68291e-16)
(-56.3478 0.129351 4.78554e-16)
(-55.7165 0.223466 3.06676e-16)
(-54.8088 0.224556 2.69424e-16)
(-54.2823 0.161529 2.47275e-16)
(-54.137 0.0385133 3.5106e-16)
(-54.9559 -0.178786 1.97085e-17)
(-57.0288 -0.628976 -1.20032e-15)
(-61.6028 -1.45589 -1.14944e-15)
(-70.3743 -2.97207 -1.93172e-15)
(-86.9 -6.16875 -8.67536e-16)
(-114.585 -11.528 -1.52473e-15)
(-20.4986 -0.0599082 1.24147e-16)
(-20.2942 -0.155888 1.97376e-16)
(-20.1407 -0.164068 1.01366e-16)
(-19.7889 -0.177878 8.76757e-17)
(-19.5312 -0.184791 9.74336e-17)
(-19.3586 -0.203546 3.78838e-16)
(-19.45 -0.21121 2.98709e-16)
(-19.9199 -0.250941 -3.32544e-16)
(-21.2602 -0.368135 7.31139e-17)
(-24.0565 -0.630531 -5.6174e-16)
(-30.3795 -1.19327 -3.02927e-16)
(-41.2486 -3.01385 -7.13759e-16)
(-70.714 -0.498531 -1.24476e-15)
(-100.373 9.42545 -1.27724e-15)
(-120.56 5.10032 -1.88491e-15)
(-139.87 4.53849 -1.86379e-15)
(-147.279 1.64671 1.09135e-15)
(-148.732 0.462641 -3.70047e-16)
(-149.04 0.0962474 1.04892e-16)
(-149.681 0.190521 -1.27052e-16)
(-156.693 1.5875 -4.73841e-15)
(-159.402 5.91165 -5.3591e-15)
(-154.376 5.83973 -6.14826e-15)
(-152.557 2.96446 -6.17487e-15)
(-150.387 1.75868 -6.5134e-15)
(-150.257 0.350259 -6.63514e-15)
(-150.094 0.14566 -3.58194e-15)
(-150.057 0.0696363 -1.06421e-15)
(-176.761 0.281584 -2.39557e-15)
(-164.334 4.78373 -3.10989e-15)
(-157.401 3.53425 -2.14576e-15)
(-152.987 3.35497 -2.72136e-15)
(-151.027 1.04673 1.55414e-15)
(-150.263 0.453972 -1.26505e-15)
(-150.191 0.122966 2.26457e-16)
(-149.992 0.0821461 -1.54345e-16)
(-173.797 -2.9664 -3.23886e-15)
(-163.112 0.785784 -1.77324e-15)
(-157.847 2.58479 -3.55067e-15)
(-153.161 1.5432 -1.8322e-15)
(-151.173 0.997738 1.76657e-15)
(-150.511 0.151434 -7.79511e-16)
(-150.105 0.0891097 6.6516e-16)
(-150.025 0.0404273 -3.19083e-16)
(-170.562 -5.7235 2.92409e-15)
(-162.583 -1.28059 5.21029e-15)
(-157.464 0.519241 2.71203e-15)
(-153.272 0.995063 1.96413e-15)
(-151.334 0.278514 7.09917e-15)
(-150.48 0.127472 -9.99849e-16)
(-150.166 -0.0180947 4.0369e-15)
(-150.029 0.0213099 2.01445e-15)
(-168.808 -7.42386 2.41593e-15)
(-161.344 -3.70374 -3.07253e-15)
(-157.214 -0.550425 6.14827e-15)
(-153.164 -0.305945 -1.23841e-15)
(-151.421 0.110212 1.39902e-15)
(-150.533 -0.182451 -8.96768e-16)
(-150.12 -0.0415933 7.34379e-16)
(-150.023 -0.0201516 -2.49714e-16)
(-166.285 -9.77671 1.25591e-15)
(-160.854 -5.27049 -5.99017e-16)
(-156.29 -1.98114 -3.56634e-15)
(-152.983 -0.984003 -1.41547e-15)
(-151.396 -0.403882 -3.53772e-15)
(-150.467 -0.341701 -1.78695e-15)
(-150.104 -0.11234 -2.96936e-15)
(-150.013 -0.0438251 -1.8509e-15)
(-165.148 -12.0921 2.08896e-15)
(-159.133 -6.7138 2.40301e-15)
(-155.863 -3.12295 1.99645e-15)
(-152.604 -1.84133 2.4123e-15)
(-151.34 -0.713033 -1.99176e-15)
(-150.367 -0.575863 1.14192e-15)
(-150.105 -0.157475 -1.03911e-15)
(-149.995 -0.0758723 5.97928e-16)
(-164.505 -14.4232 -2.34326e-15)
(-157.641 -8.33887 1.10213e-15)
(-155.214 -3.90794 -7.83937e-16)
(-152.136 -2.56888 4.45554e-16)
(-151.225 -1.04153 -2.99504e-16)
(-150.217 -0.758181 1.97599e-16)
(-150.09 -0.21331 -1.91468e-16)
(-149.972 -0.0735455 1.90655e-16)
(-162.59 -17.4434 -2.48469e-15)
(-156.476 -9.3612 -2.81947e-15)
(-153.664 -5.05929 1.87198e-15)
(-152.241 -2.77445 -1.38971e-15)
(-150.679 -1.56536 1.05407e-15)
(-150.189 -0.760771 -9.36557e-16)
(-149.994 -0.30185 6.58016e-16)
(-150.019 -0.0502871 -4.86154e-16)
(-140.563 -13.6573 -1.84772e-15)
(-150.166 -10.4095 -1.73149e-15)
(-150.877 -5.03463 -2.80693e-15)
(-151.119 -2.96651 -2.20679e-15)
(-150.589 -1.61027 1.43843e-15)
(-149.909 -0.863002 -5.7639e-16)
(-150.02 -0.227604 2.91689e-16)
(-149.97 -0.0796724 -1.84648e-16)
(-64.3926 -7.13016 -2.56696e-15)
(-104.324 -7.58634 1.20012e-15)
(-124.003 -4.26783 -6.3458e-16)
(-135.712 -2.9197 4.89272e-16)
(-144.432 -1.60704 -3.12936e-16)
(-148.609 -0.980723 1.18869e-16)
(-149.651 -0.265978 -2.79324e-17)
(-149.824 -0.00892788 1.34517e-17)
)
;

boundaryField
{
    walls
    {
        type            noSlip;
    }
    inlet
    {
        type            fixedValue;
        value           uniform (-150 0 0);
    }
    outlet
    {
        type            pressureInletOutletVelocity;
        value           nonuniform List<vector> 
20
(
(-7.00796 0.00728662 8.78302e-18)
(-20.509 0.00704252 2.62782e-17)
(-33.545 0.0123778 4.47189e-17)
(-46.1605 0.0158298 6.07867e-17)
(-58.3954 0.0154124 7.54106e-17)
(-70.2861 0.0108828 9.30369e-17)
(-81.8657 0.00233171 1.14612e-16)
(-93.1647 -0.00904484 1.36478e-16)
(-113.422 -0.0282992 1.86886e-16)
(-141.43 -0.0365441 2.99347e-16)
(-167.953 0.0259527 4.97878e-16)
(-191.956 0.421511 8.71081e-16)
(-208.327 1.27581 1.33064e-15)
(-201.46 1.7072 9.16442e-16)
(-178.575 1.64991 1.01117e-15)
(-151.315 1.18836 9.94435e-16)
(-122.074 0.720294 8.27076e-16)
(-90.8626 0.348921 6.09258e-16)
(-57.2543 0.106021 3.68291e-16)
(-20.4986 -0.0599082 1.24147e-16)
)
;
    }
}


// ************************************************************************* //
