/*--------------------------------*- C++ -*----------------------------------*\
  =========                 |
  \\      /  F ield         | OpenFOAM: The Open Source CFD Toolbox
   \\    /   O peration     | Website:  https://openfoam.org
    \\  /    A nd           | Version:  8
     \\/     M anipulation  |
\*---------------------------------------------------------------------------*/
FoamFile
{
    version     2.0;
    format      ascii;
    class       volVectorField;
    location    "3";
    object      U;
}
// * * * * * * * * * * * * * * * * * * * * * * * * * * * * * * * * * * * * * //

dimensions      [0 1 -1 0 0 0 0];

internalField   nonuniform List<vector> 
336
(
(-0.601368 -0.000728857 -7.85036e-19)
(-0.578804 -0.000614113 -1.30844e-18)
(-0.567809 -0.000888521 -3.91791e-19)
(-0.539857 -0.00135081 -2.68789e-18)
(-0.505337 -0.00205146 -1.00123e-18)
(-0.449657 -0.00313339 -1.64153e-18)
(-0.368878 -0.00456162 -5.89589e-19)
(-0.263146 -0.00609927 -4.51578e-18)
(-0.106025 -0.00793137 -1.0424e-18)
(0.0240783 -0.00738152 -2.84668e-18)
(0.255121 -0.00629599 -1.73117e-18)
(0.150215 0.0158153 -9.60312e-19)
(-1.73108 -0.00370361 -2.38769e-18)
(-1.66866 -0.00395969 -3.95262e-18)
(-1.63721 -0.00528149 -1.69423e-18)
(-1.55847 -0.00805235 -8.52615e-18)
(-1.46406 -0.0117705 -2.99662e-18)
(-1.31406 -0.0175199 -4.95171e-18)
(-1.10359 -0.0245565 -1.65995e-18)
(-0.830668 -0.0328319 -1.38191e-17)
(-0.436279 -0.0400645 -3.05135e-18)
(-0.109897 -0.0418764 -8.47754e-18)
(0.486787 -0.0299418 -5.15554e-18)
(0.264814 0.0610083 -2.913e-18)
(-2.7909 -0.00946722 -3.85383e-18)
(-2.6938 -0.0113428 -6.76713e-18)
(-2.64441 -0.0145888 -3.15788e-18)
(-2.52119 -0.0222068 -1.41707e-17)
(-2.37759 -0.0317544 -5.03594e-18)
(-2.15185 -0.0465069 -8.35622e-18)
(-1.84377 -0.0637645 -1.66783e-18)
(-1.44739 -0.0850129 -2.38897e-17)
(-0.886932 -0.100117 -4.95414e-18)
(-0.422599 -0.111767 -1.33156e-17)
(0.45281 -0.0735717 -8.45875e-18)
(0.194642 0.119002 -4.96507e-18)
(-3.78492 -0.0174406 -5.61279e-18)
(-3.65906 -0.0220961 -9.71872e-18)
(-3.59523 -0.027898 -6.05414e-18)
(-3.43573 -0.04226 -1.76312e-17)
(-3.25542 -0.059471 -7.38446e-18)
(-2.97429 -0.0860099 -1.19654e-17)
(-2.60055 -0.116193 -7.08997e-18)
(-2.12281 -0.154156 -3.36365e-17)
(-1.46024 -0.178047 -6.86358e-18)
(-0.907793 -0.206491 -1.78945e-17)
(0.16487 -0.133507 -1.07079e-17)
(-0.0732951 0.159499 -7.22357e-18)
(-4.71778 -0.0270495 -7.20881e-18)
(-4.57021 -0.0353564 -1.09178e-17)
(-4.4964 -0.0441071 -8.70206e-18)
(-4.31083 -0.0663728 -2.0842e-17)
(-4.10765 -0.0921231 -1.00505e-17)
(-3.79264 -0.131754 -1.5466e-17)
(-3.38398 -0.175909 -9.07252e-18)
(-2.86408 -0.23205 -3.73245e-17)
(-2.15487 -0.264937 -1.25945e-17)
(-1.55623 -0.315516 -2.18769e-17)
(-0.365131 -0.205842 -1.28312e-17)
(-0.564964 0.152351 -9.86202e-18)
(-5.5942 -0.037766 -8.21451e-18)
(-5.43311 -0.0502895 -1.18094e-17)
(-5.35448 -0.0621244 -1.08189e-17)
(-5.15452 -0.092831 -2.44579e-17)
(-4.94275 -0.127266 -1.314e-17)
(-4.61527 -0.180244 -1.88896e-17)
(-4.19981 -0.238322 -1.37224e-17)
(-3.67259 -0.31269 -3.89236e-17)
(-2.96308 -0.354577 -1.85168e-17)
(-2.35334 -0.431327 -2.54412e-17)
(-1.12157 -0.282801 -1.49576e-17)
(-1.30712 0.0596779 -1.30439e-17)
(-6.41829 -0.0489967 -8.54779e-18)
(-6.25265 -0.0658853 -1.21241e-17)
(-6.17457 -0.0806209 -1.08793e-17)
(-5.97241 -0.119676 -2.44694e-17)
(-5.76557 -0.162281 -1.67236e-17)
(-5.44532 -0.22799 -2.19283e-17)
(-5.04706 -0.29917 -2.11813e-17)
(-4.54159 -0.390844 -3.41912e-17)
(-3.86899 -0.442193 -2.46787e-17)
(-3.27703 -0.546047 -2.71282e-17)
(-2.08229 -0.357207 -1.72837e-17)
(-2.29819 -0.174181 -1.68011e-17)
(-7.19303 -0.0603226 -8.64434e-18)
(-7.0318 -0.0809699 -1.20536e-17)
(-6.95931 -0.0983538 -1.20765e-17)
(-6.76638 -0.144969 -2.37994e-17)
(-6.57594 -0.194761 -2.03453e-17)
(-6.27937 -0.271917 -2.40274e-17)
(-5.91701 -0.355159 -2.51284e-17)
(-5.45562 -0.462271 -3.05443e-17)
(-4.8484 -0.52589 -3.03736e-17)
(-4.29683 -0.649079 -2.87049e-17)
(-3.21616 -0.442895 -1.98916e-17)
(-3.46483 -0.537576 -2.08658e-17)
(-8.52537 -0.0812287 -7.56706e-18)
(-8.38695 -0.106664 -1.0921e-17)
(-8.33231 -0.129547 -9.24791e-18)
(-8.1736 -0.187975 -1.99842e-17)
(-8.02881 -0.249602 -2.61284e-17)
(-7.79781 -0.345338 -2.60144e-17)
(-7.52459 -0.449298 -2.93587e-17)
(-7.17219 -0.579762 -3.08464e-17)
(-6.72109 -0.672879 -3.26179e-17)
(-6.27625 -0.802167 -3.28363e-17)
(-5.52858 -0.665849 -2.54909e-17)
(-5.61504 -1.0633 -2.77856e-17)
(-10.1208 -0.103073 -5.72593e-18)
(-10.0535 -0.130562 -7.79214e-18)
(-10.0361 -0.161626 -5.99189e-18)
(-9.96337 -0.228371 -2.30735e-17)
(-9.90458 -0.302555 -2.33724e-17)
(-9.80314 -0.414059 -2.40084e-17)
(-9.68501 -0.536382 -2.73158e-17)
(-9.534 -0.682172 -2.8378e-17)
(-9.34802 -0.801206 -3.10486e-17)
(-9.18354 -0.90909 -3.28668e-17)
(-8.985 -0.88786 -3.42852e-17)
(-9.08286 -1.01818 -4.00148e-17)
(-11.2871 -0.109721 -3.71831e-18)
(-11.2799 -0.135308 -4.34105e-18)
(-11.2825 -0.170211 -3.22441e-18)
(-11.2755 -0.237667 -1.76346e-17)
(-11.268 -0.316581 -1.63077e-17)
(-11.2563 -0.431162 -1.76624e-17)
(-11.2353 -0.557118 -1.93111e-17)
(-11.2209 -0.702307 -2.20097e-17)
(-11.2035 -0.82441 -2.36041e-17)
(-11.2427 -0.92098 -2.87583e-17)
(-11.3283 -0.934978 -2.82366e-17)
(-11.4824 -0.897117 -3.81102e-17)
(-11.9672 -0.107298 -1.58012e-18)
(-11.9922 -0.130026 -2.74796e-18)
(-11.9971 -0.166262 -3.62228e-20)
(-12.0234 -0.231484 -7.2091e-18)
(-12.0312 -0.311146 -6.74761e-18)
(-12.0626 -0.423108 -8.56616e-18)
(-12.0781 -0.546445 -7.68296e-18)
(-12.1251 -0.685727 -1.22811e-17)
(-12.1737 -0.805677 -8.65185e-18)
(-12.2989 -0.900196 -1.48242e-17)
(-12.4681 -0.921747 -1.0935e-17)
(-12.6371 -0.807019 -1.88486e-17)
(-12.1783 -0.101013 -1.40444e-18)
(-12.227 -0.122248 -2.25113e-18)
(-12.232 -0.158537 -1.31935e-18)
(-12.2841 -0.221279 -3.37258e-18)
(-12.3005 -0.300043 3.93408e-18)
(-12.3635 -0.407566 -1.09108e-18)
(-12.3985 -0.526141 4.86387e-18)
(-12.481 -0.658157 -5.73658e-18)
(-12.5551 -0.774766 4.43503e-18)
(-12.7099 -0.86702 -1.76221e-18)
(-12.8797 -0.882035 1.63646e-18)
(-13.0246 -0.741237 -2.21971e-18)
(-11.952 -0.0900272 1.03487e-18)
(-12.0353 -0.110332 4.28951e-19)
(-12.0488 -0.145592 3.42938e-18)
(-12.1397 -0.205334 2.44118e-18)
(-12.179 -0.282037 4.37078e-18)
(-12.2891 -0.384346 4.46387e-18)
(-12.3599 -0.49809 6.71889e-18)
(-12.4915 -0.624 -3.89182e-18)
(-12.6011 -0.73872 3.75754e-18)
(-12.7846 -0.827457 8.12475e-19)
(-12.9483 -0.832557 7.22527e-18)
(-13.07 -0.693857 5.4722e-18)
(-11.2765 -0.0713956 4.18157e-18)
(-11.4008 -0.0888847 4.908e-18)
(-11.4321 -0.121725 3.4128e-18)
(-11.5723 -0.17599 3.54555e-18)
(-11.6529 -0.248596 3.36819e-18)
(-11.8288 -0.343729 4.91818e-18)
(-11.965 -0.452274 8.24541e-19)
(-12.176 -0.573149 7.13779e-19)
(-12.3607 -0.688087 1.84023e-18)
(-12.6092 -0.774782 -1.96404e-18)
(-12.8096 -0.776049 2.05251e-18)
(-12.9511 -0.655897 -4.13426e-20)
(-10.1104 -0.0454066 4.96833e-18)
(-10.2569 -0.0562851 4.66284e-18)
(-10.306 -0.0842659 4.72212e-18)
(-10.482 -0.128398 2.87344e-18)
(-10.6081 -0.19244 -1.9177e-18)
(-10.8487 -0.275597 -1.17915e-18)
(-11.0686 -0.375222 -5.35595e-18)
(-11.3811 -0.488662 -2.60256e-18)
(-11.6839 -0.603018 -4.13161e-18)
(-12.0486 -0.690228 -3.13633e-18)
(-12.356 -0.698033 -1.9236e-18)
(-12.5896 -0.607614 -1.76062e-18)
(-8.45068 -0.0186806 3.44899e-18)
(-8.57517 -0.0202423 2.89212e-18)
(-8.62497 -0.0398341 1.06628e-20)
(-8.79341 -0.0686594 1.06799e-18)
(-8.93719 -0.116884 -6.51927e-21)
(-9.20284 -0.180173 2.78306e-18)
(-9.48263 -0.261778 -4.79319e-18)
(-9.87708 -0.359283 -6.19151e-18)
(-10.3025 -0.465793 -5.25056e-18)
(-10.8081 -0.552567 -7.40107e-18)
(-11.2774 -0.574574 -5.23296e-18)
(-11.6728 -0.520524 -6.55529e-18)
(-6.37671 -0.00118313 2.56419e-18)
(-6.44155 0.0041977 2.37328e-18)
(-6.46523 -0.00526702 -1.61217e-18)
(-6.5747 -0.0171466 6.57587e-19)
(-6.68155 -0.0435694 -1.56471e-18)
(-6.89717 -0.0794542 -1.13482e-18)
(-7.1562 -0.131054 -3.63779e-18)
(-7.54345 -0.198415 -7.53775e-18)
(-8.0109 -0.281518 -6.52425e-18)
(-8.59403 -0.358122 -9.37975e-18)
(-9.19218 -0.392243 -7.49796e-18)
(-9.74492 -0.372377 -1.02145e-17)
(-4.00654 0.00346348 1.54101e-18)
(-4.01515 0.00929767 1.16028e-18)
(-4.00432 0.00733141 -1.18128e-18)
(-4.03808 0.00599508 4.2391e-19)
(-4.07406 -0.00200948 -8.70068e-19)
(-4.18075 -0.0124509 -2.1058e-19)
(-4.32931 -0.0312378 -3.18611e-18)
(-4.5829 -0.0597103 -4.96381e-18)
(-4.93283 -0.102762 -4.27506e-18)
(-5.41439 -0.15112 -6.32241e-18)
(-5.963 -0.182818 -6.05826e-18)
(-6.51331 -0.184093 -8.07684e-18)
(-1.4098 0.00137663 7.39795e-19)
(-1.39959 0.0034606 2.80967e-18)
(-1.38067 0.00382979 -4.62711e-19)
(-1.3725 0.00440012 1.93232e-19)
(-1.36285 0.00349471 1.70295e-19)
(-1.37523 0.00321384 3.12652e-18)
(-1.40266 0.00108355 2.25172e-18)
(-1.4699 -0.00328976 -1.6323e-18)
(-1.5845 -0.0125244 -8.37958e-20)
(-1.77151 -0.0260979 -2.24593e-18)
(-2.01549 -0.0386391 -2.23291e-18)
(-2.28332 -0.0434216 -3.44924e-18)
(-2.87437 -0.106568 -1.21199e-17)
(-3.67881 -0.0324969 -2.00034e-17)
(-3.33899 -0.0159352 -2.51933e-17)
(-3.64194 0.0227816 -4.35821e-17)
(-3.96729 0.0715129 -2.06163e-17)
(-4.8129 0.173083 -2.29547e-17)
(-6.06565 0.354156 -3.69454e-18)
(-7.94982 0.390414 -2.26313e-18)
(-8.07022 -0.2807 -3.90374e-17)
(-8.6721 -0.0322169 -5.15422e-17)
(-8.27504 0.0313179 -5.81943e-17)
(-8.88788 0.167554 -7.12648e-17)
(-9.10325 0.296372 -7.19846e-17)
(-9.73542 0.527527 -1.01572e-16)
(-9.90529 0.814767 -6.37692e-17)
(-9.92926 0.750081 -3.64008e-17)
(-11.1884 -0.303336 -4.04766e-17)
(-11.3959 -0.0638742 -5.02272e-17)
(-11.1305 0.0953473 -5.12277e-17)
(-11.4425 0.237484 -6.2175e-17)
(-11.2801 0.361333 -3.1474e-17)
(-11.3262 0.568953 -4.06587e-17)
(-10.7135 0.783134 -1.52581e-18)
(-10.1024 0.599226 -1.33498e-17)
(-12.5567 -0.341047 -1.69989e-17)
(-12.5322 -0.127263 -2.31885e-17)
(-12.3069 0.0684554 -1.93026e-17)
(-12.2683 0.178107 -2.23344e-17)
(-11.9084 0.277581 1.2597e-17)
(-11.5687 0.42036 -1.18818e-17)
(-10.7303 0.558317 2.67897e-17)
(-10.0632 0.378338 -9.38962e-18)
(-12.9724 -0.391592 8.19056e-18)
(-12.8564 -0.199477 6.58835e-18)
(-12.6206 -0.0130653 1.82663e-17)
(-12.4018 0.0700316 1.0415e-17)
(-11.9881 0.151064 5.72651e-17)
(-11.4741 0.235666 2.94301e-18)
(-10.6539 0.321385 5.92143e-17)
(-10.0341 0.205099 4.35355e-17)
(-13.0169 -0.436328 7.09846e-18)
(-12.8838 -0.267469 7.98733e-18)
(-12.6441 -0.108365 1.50865e-17)
(-12.3739 -0.0434959 1.48857e-17)
(-11.9574 0.021239 2.08524e-18)
(-11.3875 0.0576514 1.27477e-18)
(-10.6151 0.099972 1.28781e-17)
(-10.0178 0.0631784 -6.72336e-18)
(-12.9316 -0.468064 2.72889e-18)
(-12.8288 -0.326589 8.75363e-19)
(-12.6154 -0.201878 -4.48143e-18)
(-12.3552 -0.152362 -8.9151e-18)
(-11.9547 -0.108076 -1.95644e-17)
(-11.3779 -0.115137 -1.82574e-17)
(-10.6217 -0.117197 -3.31814e-17)
(-10.0081 -0.0692992 -4.81632e-17)
(-12.6723 -0.476233 6.69759e-19)
(-12.662 -0.367923 9.17544e-19)
(-12.5308 -0.281877 3.54953e-18)
(-12.3336 -0.253066 1.15865e-18)
(-11.9869 -0.23683 -1.94822e-17)
(-11.439 -0.288201 -3.65173e-18)
(-10.6797 -0.340664 -1.32716e-17)
(-10.003 -0.209788 -4.18529e-18)
(-11.9363 -0.43966 -4.13795e-18)
(-12.1052 -0.371236 -1.82207e-18)
(-12.149 -0.328858 -8.5706e-19)
(-12.1125 -0.333068 -2.97631e-18)
(-11.9213 -0.359235 -2.82124e-18)
(-11.4954 -0.463444 -2.14997e-18)
(-10.7817 -0.579592 -5.46486e-19)
(-10.0119 -0.381375 -1.60157e-18)
(-10.2075 -0.333736 -7.38672e-18)
(-10.6039 -0.303734 -7.99915e-18)
(-10.9054 -0.302744 -1.12963e-18)
(-11.1555 -0.347994 -4.73965e-18)
(-11.2984 -0.43075 4.81668e-18)
(-11.2165 -0.600016 -4.85772e-18)
(-10.7743 -0.802242 4.49538e-18)
(-10.0481 -0.601962 -3.45844e-18)
(-7.0277 -0.170765 -7.81949e-18)
(-7.52298 -0.159666 -7.9319e-18)
(-7.99196 -0.172165 -1.05658e-17)
(-8.50501 -0.230252 -1.74147e-17)
(-9.07666 -0.341588 1.07069e-17)
(-9.62181 -0.547487 -6.75612e-18)
(-9.9385 -0.826371 4.79232e-18)
(-9.89676 -0.753213 -2.91578e-18)
(-2.54902 -0.0416637 -6.46826e-18)
(-2.80891 -0.0363302 -2.28887e-18)
(-3.06349 -0.0348854 -3.56827e-18)
(-3.38205 -0.0488739 -3.5598e-18)
(-3.88572 -0.0876962 3.04427e-18)
(-4.74146 -0.181919 -1.91104e-18)
(-6.05881 -0.358022 1.18036e-18)
(-7.94201 -0.391963 -5.79715e-19)
)
;

boundaryField
{
    walls
    {
        type            noSlip;
    }
    inlet
    {
        type            fixedValue;
        value           uniform (-10 0 0);
    }
    outlet
    {
        type            pressureInletOutletVelocity;
        value           nonuniform List<vector> 
20
(
(-0.601368 -0.000728857 -7.85036e-19)
(-1.73108 -0.00370361 -2.38769e-18)
(-2.7909 -0.00946722 -3.85383e-18)
(-3.78492 -0.0174406 -5.61279e-18)
(-4.71778 -0.0270495 -7.20881e-18)
(-5.5942 -0.037766 -8.21451e-18)
(-6.41829 -0.0489967 -8.54779e-18)
(-7.19303 -0.0603226 -8.64434e-18)
(-8.52537 -0.0812287 -7.56706e-18)
(-10.1208 -0.103073 -5.72593e-18)
(-11.2871 -0.109721 -3.71831e-18)
(-11.9672 -0.107298 -1.58012e-18)
(-12.1783 -0.101013 -1.40444e-18)
(-11.952 -0.0900272 1.03487e-18)
(-11.2765 -0.0713956 4.18157e-18)
(-10.1104 -0.0454066 4.96833e-18)
(-8.45068 -0.0186806 3.44899e-18)
(-6.37671 -0.00118313 2.56419e-18)
(-4.00654 0.00346348 1.54101e-18)
(-1.4098 0.00137663 7.39795e-19)
)
;
    }
}


// ************************************************************************* //
