/*--------------------------------*- C++ -*----------------------------------*\
  =========                 |
  \\      /  F ield         | OpenFOAM: The Open Source CFD Toolbox
   \\    /   O peration     | Website:  https://openfoam.org
    \\  /    A nd           | Version:  8
     \\/     M anipulation  |
\*---------------------------------------------------------------------------*/
FoamFile
{
    version     2.0;
    format      ascii;
    class       volVectorField;
    location    "1";
    object      U;
}
// * * * * * * * * * * * * * * * * * * * * * * * * * * * * * * * * * * * * * //

dimensions      [0 1 -1 0 0 0 0];

internalField   nonuniform List<vector> 
336
(
(-0.601368 -0.000728857 -9.91305e-19)
(-0.578804 -0.000614113 -1.43654e-18)
(-0.567809 -0.000888521 -5.62527e-19)
(-0.539857 -0.0013508 -3.03154e-18)
(-0.505337 -0.00205146 -1.1431e-18)
(-0.449657 -0.00313339 -1.90625e-18)
(-0.368878 -0.00456161 -1.51507e-18)
(-0.263146 -0.00609927 -4.34264e-18)
(-0.106025 -0.00793137 -1.11837e-18)
(0.0240783 -0.00738153 -3.111e-18)
(0.255121 -0.00629599 -1.88797e-18)
(0.150215 0.0158153 -1.00926e-18)
(-1.73108 -0.00370362 -2.93678e-18)
(-1.66866 -0.00395969 -4.28819e-18)
(-1.63721 -0.00528148 -1.57947e-18)
(-1.55847 -0.00805235 -9.21877e-18)
(-1.46406 -0.0117705 -3.41221e-18)
(-1.31406 -0.0175199 -5.75759e-18)
(-1.10359 -0.0245565 -4.57121e-18)
(-0.830668 -0.0328319 -1.2984e-17)
(-0.436279 -0.0400646 -3.29477e-18)
(-0.109897 -0.0418764 -8.68175e-18)
(0.486787 -0.0299418 -5.67411e-18)
(0.264814 0.0610083 -3.05853e-18)
(-2.7909 -0.00946722 -4.74931e-18)
(-2.6938 -0.0113428 -7.11356e-18)
(-2.64441 -0.0145888 -2.12958e-18)
(-2.52119 -0.0222068 -1.56934e-17)
(-2.37759 -0.0317544 -5.73752e-18)
(-2.15185 -0.0465069 -9.6701e-18)
(-1.84377 -0.0637645 -5.23092e-18)
(-1.44739 -0.0850129 -2.12786e-17)
(-0.886933 -0.100117 -5.37276e-18)
(-0.422599 -0.111767 -1.39952e-17)
(0.45281 -0.0735717 -9.46852e-18)
(0.194642 0.119002 -5.19995e-18)
(-3.78492 -0.0174407 -6.7805e-18)
(-3.65906 -0.0220961 -1.06682e-17)
(-3.59523 -0.027898 -4.92165e-18)
(-3.43573 -0.04226 -1.88834e-17)
(-3.25542 -0.059471 -8.33732e-18)
(-2.97429 -0.0860099 -1.35909e-17)
(-2.60055 -0.116193 -1.08389e-17)
(-2.12281 -0.154156 -3.11325e-17)
(-1.46024 -0.178047 -6.08406e-18)
(-0.907793 -0.206491 -1.8425e-17)
(0.16487 -0.133507 -1.14929e-17)
(-0.073295 0.159499 -7.52878e-18)
(-4.71778 -0.0270495 -8.78343e-18)
(-4.57021 -0.0353564 -1.28226e-17)
(-4.4964 -0.0441071 -9.93222e-18)
(-4.31083 -0.0663728 -2.22416e-17)
(-4.10765 -0.0921231 -1.1267e-17)
(-3.79264 -0.131754 -1.73646e-17)
(-3.38398 -0.175909 -1.55351e-17)
(-2.86408 -0.23205 -3.36778e-17)
(-2.15487 -0.264937 -1.31976e-17)
(-1.55623 -0.315516 -2.24137e-17)
(-0.365131 -0.205842 -1.35603e-17)
(-0.564964 0.152351 -1.02209e-17)
(-5.5942 -0.037766 -1.01059e-17)
(-5.43311 -0.0502895 -1.36396e-17)
(-5.35448 -0.0621244 -1.32298e-17)
(-5.15452 -0.092831 -2.57854e-17)
(-4.94275 -0.127266 -1.45619e-17)
(-4.61527 -0.180244 -2.10013e-17)
(-4.19981 -0.238322 -1.99232e-17)
(-3.67259 -0.31269 -3.47484e-17)
(-2.96308 -0.354577 -1.90166e-17)
(-2.35334 -0.431327 -2.59732e-17)
(-1.12157 -0.282801 -1.5716e-17)
(-1.30712 0.0596779 -1.3429e-17)
(-6.41829 -0.0489967 -1.06125e-17)
(-6.25265 -0.0658853 -1.38595e-17)
(-6.17457 -0.0806209 -1.30024e-17)
(-5.97241 -0.119676 -2.59095e-17)
(-5.76557 -0.162281 -1.82541e-17)
(-5.44532 -0.22799 -2.38883e-17)
(-5.04706 -0.29917 -2.42935e-17)
(-4.54159 -0.390844 -3.36142e-17)
(-3.86899 -0.442193 -2.49416e-17)
(-3.27703 -0.546047 -2.75285e-17)
(-2.08229 -0.357207 -1.81064e-17)
(-2.29819 -0.174181 -1.71658e-17)
(-7.19303 -0.0603226 -1.06961e-17)
(-7.0318 -0.08097 -1.32602e-17)
(-6.95931 -0.0983538 -1.34488e-17)
(-6.76638 -0.144969 -2.56333e-17)
(-6.57594 -0.194761 -2.19037e-17)
(-6.27937 -0.271917 -2.5667e-17)
(-5.91701 -0.355159 -2.72534e-17)
(-5.45562 -0.462271 -3.04687e-17)
(-4.8484 -0.52589 -3.0457e-17)
(-4.29683 -0.649079 -2.95586e-17)
(-3.21616 -0.442895 -2.07712e-17)
(-3.46483 -0.537576 -2.11496e-17)
(-8.52537 -0.0812287 -9.35601e-18)
(-8.38695 -0.106664 -1.08282e-17)
(-8.33231 -0.129547 -9.02228e-18)
(-8.1736 -0.187975 -2.54356e-17)
(-8.02881 -0.249603 -2.77566e-17)
(-7.79781 -0.345338 -2.68936e-17)
(-7.52459 -0.449298 -3.06544e-17)
(-7.17219 -0.579762 -3.09471e-17)
(-6.72109 -0.672879 -3.31251e-17)
(-6.27625 -0.802167 -3.29794e-17)
(-5.52858 -0.665849 -2.60293e-17)
(-5.61504 -1.0633 -2.78313e-17)
(-10.1208 -0.103073 -7.19905e-18)
(-10.0535 -0.130562 -8.99875e-18)
(-10.0361 -0.161626 -9.4492e-18)
(-9.96337 -0.228371 -2.3016e-17)
(-9.90458 -0.302555 -2.64194e-17)
(-9.80314 -0.414059 -2.35421e-17)
(-9.68501 -0.536382 -2.87434e-17)
(-9.534 -0.682172 -2.77912e-17)
(-9.34802 -0.801206 -3.17394e-17)
(-9.18354 -0.90909 -3.29706e-17)
(-8.985 -0.887861 -3.46836e-17)
(-9.08286 -1.01818 -3.98233e-17)
(-11.2871 -0.109721 -3.76352e-18)
(-11.2799 -0.135308 -5.43554e-18)
(-11.2825 -0.170211 -4.73411e-18)
(-11.2755 -0.237667 -1.21467e-17)
(-11.268 -0.316581 -1.84318e-17)
(-11.2563 -0.431162 -1.63229e-17)
(-11.2353 -0.557118 -2.08199e-17)
(-11.2209 -0.702307 -2.07164e-17)
(-11.2035 -0.82441 -2.43309e-17)
(-11.2427 -0.92098 -2.85186e-17)
(-11.3283 -0.934978 -2.84461e-17)
(-11.4824 -0.897117 -3.81096e-17)
(-11.9672 -0.107297 -1.35089e-19)
(-11.9922 -0.130026 -7.61675e-19)
(-11.9971 -0.166262 2.32917e-19)
(-12.0234 -0.231484 -6.19474e-18)
(-12.0312 -0.311145 -6.15588e-18)
(-12.0626 -0.423108 -6.71509e-18)
(-12.0781 -0.546445 -8.35338e-18)
(-12.1251 -0.685727 -1.0524e-17)
(-12.1737 -0.805677 -8.88353e-18)
(-12.2989 -0.900197 -1.51275e-17)
(-12.4681 -0.921748 -1.12486e-17)
(-12.6371 -0.807019 -1.96034e-17)
(-12.1783 -0.101013 4.0679e-19)
(-12.227 -0.122248 2.18174e-19)
(-12.232 -0.158538 4.44911e-19)
(-12.2841 -0.221279 -1.501e-18)
(-12.3005 -0.300043 5.79314e-18)
(-12.3635 -0.407566 2.32583e-18)
(-12.3985 -0.526141 8.17188e-18)
(-12.481 -0.658157 -5.42303e-18)
(-12.5551 -0.774766 4.9965e-18)
(-12.7099 -0.86702 -3.57452e-18)
(-12.8797 -0.882035 1.48814e-18)
(-13.0246 -0.741236 -3.46634e-18)
(-11.952 -0.0900272 2.29911e-18)
(-12.0353 -0.110332 2.25821e-18)
(-12.0488 -0.145592 5.33246e-18)
(-12.1397 -0.205334 5.03514e-18)
(-12.179 -0.282037 7.29129e-18)
(-12.2891 -0.384346 6.23931e-18)
(-12.3599 -0.49809 9.3481e-18)
(-12.4915 -0.624 -2.82102e-18)
(-12.6011 -0.73872 5.5722e-18)
(-12.7846 -0.827458 -9.40011e-19)
(-12.9483 -0.832557 6.89006e-18)
(-13.07 -0.693857 3.31215e-18)
(-11.2765 -0.0713956 5.0402e-18)
(-11.4008 -0.0888847 6.35009e-18)
(-11.4321 -0.121725 4.27004e-18)
(-11.5723 -0.17599 6.14203e-18)
(-11.6529 -0.248596 6.29573e-18)
(-11.8288 -0.343729 8.4999e-18)
(-11.965 -0.452275 6.14246e-19)
(-12.176 -0.573149 -1.84851e-18)
(-12.3607 -0.688087 4.27045e-18)
(-12.6092 -0.774782 -1.76832e-18)
(-12.8096 -0.77605 1.92928e-18)
(-12.9511 -0.655897 -1.08656e-18)
(-10.1104 -0.0454066 5.09846e-18)
(-10.2569 -0.0562851 4.75854e-18)
(-10.306 -0.0842659 7.20776e-18)
(-10.482 -0.128398 4.1296e-18)
(-10.6081 -0.19244 -1.13098e-18)
(-10.8487 -0.275597 3.70777e-19)
(-11.0686 -0.375222 -3.41994e-18)
(-11.3811 -0.488662 -2.60256e-18)
(-11.6839 -0.603018 -3.02902e-18)
(-12.0486 -0.690228 -3.5209e-18)
(-12.356 -0.698033 -1.89416e-18)
(-12.5896 -0.607614 -3.11253e-18)
(-8.45068 -0.0186806 4.10792e-18)
(-8.57517 -0.0202423 3.56472e-18)
(-8.62497 -0.0398341 1.70084e-21)
(-8.79341 -0.0686594 2.30017e-18)
(-8.93719 -0.116884 3.42193e-20)
(-9.20284 -0.180173 3.24102e-18)
(-9.48263 -0.261778 -2.51415e-18)
(-9.87708 -0.359283 -5.76641e-18)
(-10.3025 -0.465793 -3.5495e-18)
(-10.8081 -0.552567 -8.04588e-18)
(-11.2774 -0.574574 -5.09894e-18)
(-11.6728 -0.520524 -7.73051e-18)
(-6.37671 -0.00118315 3.16967e-18)
(-6.44155 0.00419768 3.69359e-18)
(-6.46523 -0.005267 -1.41739e-18)
(-6.5747 -0.0171466 1.68854e-18)
(-6.68155 -0.0435695 -6.1381e-19)
(-6.89717 -0.0794542 3.69913e-19)
(-7.1562 -0.131053 -2.53653e-18)
(-7.54345 -0.198415 -7.92133e-18)
(-8.0109 -0.281518 -5.62721e-18)
(-8.59403 -0.358122 -9.61592e-18)
(-9.19218 -0.392243 -7.5387e-18)
(-9.74492 -0.372377 -1.10056e-17)
(-4.00654 0.00346347 1.80615e-18)
(-4.01515 0.00929766 1.57545e-18)
(-4.00432 0.00733141 -8.61913e-19)
(-4.03808 0.0059951 1.12544e-18)
(-4.07406 -0.0020095 3.4485e-20)
(-4.18075 -0.0124509 9.79097e-19)
(-4.32931 -0.0312377 -2.7021e-18)
(-4.5829 -0.0597103 -4.87994e-18)
(-4.93283 -0.102762 -3.79244e-18)
(-5.41439 -0.15112 -6.2694e-18)
(-5.963 -0.182818 -5.97951e-18)
(-6.51331 -0.184093 -8.32817e-18)
(-1.4098 0.00137663 8.12661e-19)
(-1.39959 0.00346059 2.81372e-18)
(-1.38067 0.00382979 -3.57318e-19)
(-1.3725 0.00440012 4.26966e-19)
(-1.36285 0.00349471 6.56021e-19)
(-1.37523 0.00321383 5.80171e-18)
(-1.40266 0.00108356 2.91655e-18)
(-1.4699 -0.00328975 -1.59758e-18)
(-1.5845 -0.0125244 2.79846e-20)
(-1.77151 -0.0260979 -2.17735e-18)
(-2.01549 -0.0386391 -2.16724e-18)
(-2.28332 -0.0434216 -3.60446e-18)
(-2.87437 -0.106568 -1.18687e-17)
(-3.67881 -0.0324969 -1.94736e-17)
(-3.33899 -0.0159352 -2.3014e-17)
(-3.64194 0.0227816 -3.98789e-17)
(-3.96729 0.0715129 -2.03973e-17)
(-4.8129 0.173083 -2.33164e-17)
(-6.06565 0.354156 -5.32396e-18)
(-7.94982 0.390414 -2.55166e-18)
(-8.07022 -0.2807 -3.81878e-17)
(-8.6721 -0.0322169 -4.99838e-17)
(-8.27504 0.0313179 -5.46869e-17)
(-8.88788 0.167554 -6.74029e-17)
(-9.10325 0.296372 -7.13758e-17)
(-9.73542 0.527527 -9.78301e-17)
(-9.90529 0.814767 -8.19041e-17)
(-9.92926 0.750081 -7.09011e-17)
(-11.1884 -0.303336 -4.00246e-17)
(-11.3959 -0.0638742 -5.02821e-17)
(-11.1305 0.0953474 -5.19569e-17)
(-11.4425 0.237484 -6.06739e-17)
(-11.2801 0.361333 -3.18636e-17)
(-11.3262 0.568953 -4.72558e-17)
(-10.7135 0.783134 -4.67457e-18)
(-10.1024 0.599226 -1.42557e-17)
(-12.5567 -0.341047 -1.75648e-17)
(-12.5322 -0.127263 -2.50414e-17)
(-12.3069 0.0684553 -2.16514e-17)
(-12.2683 0.178107 -2.7082e-17)
(-11.9084 0.277581 8.08246e-18)
(-11.5687 0.42036 -1.69432e-17)
(-10.7303 0.558317 2.15216e-17)
(-10.0632 0.378338 -8.73298e-18)
(-12.9724 -0.391592 6.4937e-18)
(-12.8564 -0.199477 2.088e-18)
(-12.6206 -0.0130654 1.17081e-17)
(-12.4018 0.0700317 -9.67128e-19)
(-11.9881 0.151064 4.81068e-17)
(-11.4741 0.235666 -2.2153e-18)
(-10.6539 0.321385 5.15641e-17)
(-10.0341 0.205099 6.62825e-17)
(-13.0169 -0.436328 4.45654e-18)
(-12.8838 -0.267469 1.99787e-18)
(-12.6441 -0.108365 9.66764e-18)
(-12.3739 -0.0434959 6.79762e-18)
(-11.9574 0.021239 -8.39601e-18)
(-11.3875 0.0576514 -8.53551e-18)
(-10.6151 0.099972 -4.7905e-19)
(-10.0178 0.0631784 -1.14672e-17)
(-12.9316 -0.468063 1.43277e-18)
(-12.8288 -0.326589 -4.06245e-19)
(-12.6154 -0.201878 -1.21207e-17)
(-12.3552 -0.152362 -1.73339e-17)
(-11.9547 -0.108076 -3.18489e-17)
(-11.3779 -0.115137 -3.54142e-17)
(-10.6217 -0.117197 -5.67305e-17)
(-10.0081 -0.0692991 -6.5711e-17)
(-12.6723 -0.476233 -1.15295e-18)
(-12.662 -0.367923 -2.53133e-18)
(-12.5308 -0.281877 -2.0159e-18)
(-12.3336 -0.253066 -1.24623e-18)
(-11.9869 -0.23683 -2.33512e-17)
(-11.439 -0.288201 -1.11337e-17)
(-10.6797 -0.340664 -1.96567e-17)
(-10.003 -0.209788 -8.75881e-18)
(-11.9363 -0.43966 -5.04682e-18)
(-12.1052 -0.371236 -4.04921e-18)
(-12.1491 -0.328858 -2.09723e-18)
(-12.1125 -0.333068 -4.71381e-18)
(-11.9213 -0.359235 -3.82879e-18)
(-11.4954 -0.463444 -3.97022e-18)
(-10.7817 -0.579592 -1.03053e-18)
(-10.0119 -0.381375 -2.13885e-18)
(-10.2075 -0.333736 -9.33093e-18)
(-10.6039 -0.303734 -1.39757e-17)
(-10.9054 -0.302744 -8.66608e-19)
(-11.1555 -0.347994 -4.97537e-18)
(-11.2984 -0.43075 5.36952e-18)
(-11.2165 -0.600016 -5.87931e-18)
(-10.7743 -0.802242 5.1634e-18)
(-10.0481 -0.601962 -3.75721e-18)
(-7.0277 -0.170765 -8.81949e-18)
(-7.52298 -0.159666 -1.01446e-17)
(-7.99196 -0.172165 -1.19063e-17)
(-8.50501 -0.230252 -1.97138e-17)
(-9.07666 -0.341588 1.19138e-17)
(-9.62181 -0.547487 -7.99512e-18)
(-9.9385 -0.826371 5.51039e-18)
(-9.89676 -0.753213 -3.15747e-18)
(-2.54902 -0.0416637 -6.61335e-18)
(-2.80891 -0.0363303 -2.7013e-18)
(-3.06349 -0.0348854 -4.28914e-18)
(-3.38205 -0.0488739 -3.99878e-18)
(-3.88572 -0.0876962 3.6083e-18)
(-4.74146 -0.181919 -2.21912e-18)
(-6.05881 -0.358022 1.30852e-18)
(-7.94201 -0.391963 -6.12234e-19)
)
;

boundaryField
{
    walls
    {
        type            noSlip;
    }
    inlet
    {
        type            fixedValue;
        value           uniform (-10 0 0);
    }
    outlet
    {
        type            pressureInletOutletVelocity;
        value           nonuniform List<vector> 
20
(
(-0.601368 -0.000728857 -9.91305e-19)
(-1.73108 -0.00370362 -2.93678e-18)
(-2.7909 -0.00946722 -4.74931e-18)
(-3.78492 -0.0174407 -6.7805e-18)
(-4.71778 -0.0270495 -8.78343e-18)
(-5.5942 -0.037766 -1.01059e-17)
(-6.41829 -0.0489967 -1.06125e-17)
(-7.19303 -0.0603226 -1.06961e-17)
(-8.52537 -0.0812287 -9.35601e-18)
(-10.1208 -0.103073 -7.19905e-18)
(-11.2871 -0.109721 -3.76352e-18)
(-11.9672 -0.107297 -1.35089e-19)
(-12.1783 -0.101013 4.0679e-19)
(-11.952 -0.0900272 2.29911e-18)
(-11.2765 -0.0713956 5.0402e-18)
(-10.1104 -0.0454066 5.09846e-18)
(-8.45068 -0.0186806 4.10792e-18)
(-6.37671 -0.00118315 3.16967e-18)
(-4.00654 0.00346347 1.80615e-18)
(-1.4098 0.00137663 8.12661e-19)
)
;
    }
}


// ************************************************************************* //
