/*--------------------------------*- C++ -*----------------------------------*\
  =========                 |
  \\      /  F ield         | OpenFOAM: The Open Source CFD Toolbox
   \\    /   O peration     | Website:  https://openfoam.org
    \\  /    A nd           | Version:  8
     \\/     M anipulation  |
\*---------------------------------------------------------------------------*/
FoamFile
{
    version     2.0;
    format      ascii;
    class       volScalarField;
    location    "400";
    object      epsilon;
}
// * * * * * * * * * * * * * * * * * * * * * * * * * * * * * * * * * * * * * //

dimensions      [0 2 -3 0 0 0 0];

internalField   nonuniform List<scalar> 
336
(
7.07015e+06
6.59007e+06
6.08707e+06
5.55871e+06
4.98645e+06
4.30826e+06
3.48547e+06
2.52644e+06
1.55502e+06
914124
623286
529397
6.98901e+06
6.50696e+06
6.00531e+06
5.47816e+06
4.90581e+06
4.22705e+06
3.40809e+06
2.46559e+06
1.5404e+06
954804
683517
577823
6.83769e+06
6.35389e+06
5.85623e+06
5.33241e+06
4.76133e+06
4.08386e+06
3.27463e+06
2.36445e+06
1.52257e+06
1.03745e+06
827158
703479
6.62966e+06
6.14476e+06
5.65386e+06
5.13554e+06
4.56787e+06
3.89499e+06
3.10268e+06
2.24001e+06
1.51446e+06
1.16706e+06
1.07591e+06
948863
6.37606e+06
5.89082e+06
5.40921e+06
4.89827e+06
4.33628e+06
3.6716e+06
2.90347e+06
2.10275e+06
1.52704e+06
1.34094e+06
1.43844e+06
1.37078e+06
6.08607e+06
5.60116e+06
5.13096e+06
4.6286e+06
4.07418e+06
3.42079e+06
2.68331e+06
1.96334e+06
1.55833e+06
1.53984e+06
1.90077e+06
2.01431e+06
5.76723e+06
5.28302e+06
4.82571e+06
4.33222e+06
3.78628e+06
3.14594e+06
2.44413e+06
1.83237e+06
1.57789e+06
1.73406e+06
2.40105e+06
2.84607e+06
5.42588e+06
4.94219e+06
4.49842e+06
4.0128e+06
3.47464e+06
2.84698e+06
2.18728e+06
1.70208e+06
1.56159e+06
1.84499e+06
2.74559e+06
3.66632e+06
4.77078e+06
4.28609e+06
3.86646e+06
3.39112e+06
2.86313e+06
2.25544e+06
1.68768e+06
1.42371e+06
1.40262e+06
1.78394e+06
2.78461e+06
4.45867e+06
3.76009e+06
3.25936e+06
2.86682e+06
2.37898e+06
1.83157e+06
1.19688e+06
654752
444611
401376
453791
683320
979368
2.72515e+06
2.19142e+06
1.81075e+06
1.27314e+06
626803
204118
61564.6
33622.2
28291.9
29599.6
39774.5
49704.6
1.72927e+06
1.12938e+06
759843
266649
61354.4
7066.2
848.855
476.89
393.267
348.598
369.157
391.57
999694
338794
113858
18475.2
2127.22
889.445
508.222
292.82
149.392
75.6061
46.5033
36.9024
1.14379e+06
523118
302397
124998
46504.1
18683.6
6327.04
3265.5
1171.56
488.281
126.782
49.426
2.07236e+06
1.48583e+06
1.20812e+06
817637
507847
241966
98170.8
37583
12077.4
4805.17
1064.28
286.106
3.18988e+06
2.57159e+06
2.20872e+06
1.80855e+06
1.49951e+06
1.15697e+06
748567
345139
134054
46378.5
12424.9
3176.64
4.30069e+06
3.66004e+06
3.20925e+06
2.77235e+06
2.43933e+06
2.15817e+06
1.91168e+06
1.57509e+06
950553
404174
133008
36671.4
5.34244e+06
4.70272e+06
4.16957e+06
3.66917e+06
3.27571e+06
2.98416e+06
2.81564e+06
2.71459e+06
2.5717e+06
2.06819e+06
1.04792e+06
377330
6.23209e+06
5.61397e+06
5.02167e+06
4.4538e+06
3.98992e+06
3.63969e+06
3.46939e+06
3.4337e+06
3.53189e+06
3.71795e+06
3.80314e+06
2.65834e+06
6.81724e+06
6.22794e+06
5.60933e+06
4.99881e+06
4.48779e+06
4.08975e+06
3.88009e+06
3.83534e+06
3.9918e+06
4.39762e+06
5.26387e+06
6.13705e+06
8.25681e+06
4.63927e+06
2.42155e+06
1.13471e+06
305685
115281
85463.7
38993.7
1.35654e+06
413263
175370
25734.8
5084.85
429.198
307.438
153.18
59585.4
11345.1
5347.69
13.9916
223.97
21.6224
20.6101
20.2169
430.926
312.396
140.719
18.9576
20.6776
19.2607
19.6671
19.8575
31.0742
23.4778
21.2059
19.4277
19.3474
19.4395
19.6816
19.8953
27.0449
22.4272
19.9398
19.5178
19.3091
19.5105
19.6381
19.9279
44.1092
22.8983
20.0509
19.4683
19.3274
19.4937
19.6563
19.9121
385.486
60.0126
23.5795
20.1104
19.5308
19.3966
19.6811
19.9047
5799.86
1299.21
98.0112
75.1234
24.2878
19.6109
19.5954
19.9071
92009.2
29205.8
2231.37
2055.68
418.101
37.8564
20.1415
19.704
1.105e+06
478626
130583
71693
6615.57
1454.35
113.553
39.5476
5.46898e+06
3.824e+06
2.35219e+06
1.3916e+06
580010
123741
30844.9
10827.4
)
;

boundaryField
{
    walls
    {
        type            zeroGradient;
    }
    inlet
    {
        type            fixedValue;
        value           uniform 20;
    }
    outlet
    {
        type            inletOutlet;
        inletValue      uniform 0;
        value           nonuniform List<scalar> 
20
(
7.07015e+06
6.98901e+06
6.83769e+06
6.62966e+06
6.37606e+06
6.08607e+06
5.76723e+06
5.42588e+06
4.77078e+06
3.76009e+06
2.72515e+06
1.72927e+06
999694
1.14379e+06
2.07236e+06
3.18988e+06
4.30069e+06
5.34244e+06
6.23209e+06
6.81724e+06
)
;
    }
}


// ************************************************************************* //
