/*--------------------------------*- C++ -*----------------------------------*\
  =========                 |
  \\      /  F ield         | OpenFOAM: The Open Source CFD Toolbox
   \\    /   O peration     | Website:  https://openfoam.org
    \\  /    A nd           | Version:  8
     \\/     M anipulation  |
\*---------------------------------------------------------------------------*/
FoamFile
{
    version     2.0;
    format      ascii;
    class       volScalarField;
    location    "400";
    object      k;
}
// * * * * * * * * * * * * * * * * * * * * * * * * * * * * * * * * * * * * * //

dimensions      [0 2 -2 0 0 0 0];

internalField   nonuniform List<scalar> 
336
(
12463.7
11789.7
10990.9
10087.7
9055.17
7817.77
6336.25
4655.95
2990.21
1857.59
1312.67
1163.46
12364
11684.4
10884.4
9980.07
8945.12
7704.44
6223.55
4556.66
2937.32
1870.8
1354.35
1199.57
12176.8
11487.5
10685.4
9778.56
8738.84
7492.73
6014.58
4374.38
2840.13
1894.8
1454.56
1295.79
11914.7
11212.3
10407.8
9497.34
8451.64
7199.78
5728.28
4128.08
2712.68
1933.07
1620.89
1475.2
11588.1
10869.3
10062.3
9147.11
8094.59
6837.22
5376.82
3829.46
2567.36
1983.92
1846.11
1753.8
11205.5
10467.1
9657.18
8735.74
7675.31
6412.38
4967.36
3487.09
2416.6
2030.81
2102.25
2118.93
10773.9
10012.2
9198.82
8268.61
7198.24
5928.63
4502.76
3111.34
2265.19
2043.74
2336.61
2502.77
10299.3
9509.98
8691.88
7749.11
6665.17
5386.17
3981.2
2713.24
2097.81
1994.28
2450.66
2759.49
9361.26
8512.32
7683.07
6709.24
5592.45
4290.9
2919.08
1975.13
1708.67
1709
2305.07
2885.08
7787.79
6818.34
5973.4
4923.96
3723.73
2351.02
1136.55
654.038
529.343
503.155
672.392
771.836
6057.04
4919.67
4056.86
2887.81
1508.43
480.379
129.437
61.4012
46.6989
42.6139
48.5599
52.0669
4279.67
2875.27
2001.2
754.653
185.369
21.2241
3.02278
2.05932
1.8558
1.76543
1.70561
1.50431
2865.34
1079.72
383.533
64.2701
8.01947
2.67482
2.09543
1.71765
1.57811
1.51127
1.49953
1.50161
3010.54
1415.89
823.839
336.716
128.187
41.3625
14.4943
5.67006
2.91341
1.81199
1.53099
1.4363
4545.59
3238.65
2617.25
1814.51
1131.2
531.246
203.614
64.0149
20.8435
6.60228
2.53154
1.37208
6325.3
5123.72
4361.66
3530.11
2834.08
2123.87
1335.13
581.211
212.841
63.356
16.8406
3.99424
7995.24
6866.76
5988.1
5111.23
4363.98
3673.48
3017.37
2322.85
1327.02
528.313
157.415
36.6576
9456.28
8401.53
7436.7
6497
5679.82
4962.3
4343.42
3823.87
3228.89
2351.53
1081.32
345.051
10614.5
9633.82
8618.35
7617.66
6733.14
5963.17
5320.97
4853.77
4442.18
4008.62
3446.83
2065.75
11322.1
10399.6
9366.75
8329.8
7401.42
6589.91
5914.91
5441.92
5089.3
4819
4650.07
4395.53
4342.83
2101.09
1053.69
475.651
125.684
54.4851
41.6035
26.7862
954.855
278.859
72.7514
21.2143
2.58375
1.31545
1.10148
1.07206
55.6729
11.1775
1.93709
1.35182
0.828881
0.990707
0.989514
0.99862
1.2295
1.13383
0.99224
0.989697
0.980618
0.987714
0.990548
0.998166
1.31296
1.0917
1.01493
0.990444
0.984121
0.985001
0.992151
0.996828
1.36437
1.0807
1.01179
0.990964
0.983258
0.986745
0.990901
0.997919
1.16437
1.0694
1.01175
0.988902
0.983768
0.986191
0.991695
0.997057
1.3701
1.05075
1.00491
0.988297
0.982663
0.987327
0.990512
0.998146
6.82443
1.45562
1.03857
0.967139
0.976803
0.987476
0.990465
0.998197
79.6672
14.0476
4.25348
0.86346
0.875198
0.987042
0.987803
0.999222
748.745
255.976
101.466
27.9041
7.4108
1.17854
0.98533
1.00323
2966.36
1796.78
1076.53
599.663
243.839
48.8706
16.7931
10.1822
)
;

boundaryField
{
    walls
    {
        type            zeroGradient;
    }
    inlet
    {
        type            fixedValue;
        value           uniform 1;
    }
    outlet
    {
        type            inletOutlet;
        inletValue      uniform 0;
        value           nonuniform List<scalar> 
20
(
12463.7
12364
12176.8
11914.7
11588.1
11205.5
10773.9
10299.3
9361.26
7787.79
6057.04
4279.67
2865.34
3010.54
4545.59
6325.3
7995.24
9456.28
10614.5
11322.1
)
;
    }
}


// ************************************************************************* //
