/*--------------------------------*- C++ -*----------------------------------*\
  =========                 |
  \\      /  F ield         | OpenFOAM: The Open Source CFD Toolbox
   \\    /   O peration     | Website:  https://openfoam.org
    \\  /    A nd           | Version:  8
     \\/     M anipulation  |
\*---------------------------------------------------------------------------*/
FoamFile
{
    version     2.0;
    format      ascii;
    class       volScalarField;
    location    "400";
    object      nut;
}
// * * * * * * * * * * * * * * * * * * * * * * * * * * * * * * * * * * * * * //

dimensions      [0 2 -1 0 0 0 0];

internalField   nonuniform List<scalar> 
336
(
1.97746
1.89825
1.78607
1.6476
1.47994
1.27675
1.03668
0.772237
0.517499
0.339734
0.248809
0.230126
1.96853
1.88831
1.77548
1.63635
1.46793
1.26383
1.02284
0.757905
0.504095
0.329901
0.241521
0.224129
1.95164
1.86919
1.75472
1.61387
1.44352
1.23723
0.994241
0.728359
0.476805
0.31146
0.230206
0.214814
1.92717
1.8413
1.72432
1.58074
1.40738
1.19777
0.951816
0.684681
0.437304
0.288166
0.219773
0.206415
1.89546
1.80497
1.68462
1.53733
1.35993
1.1459
0.89614
0.627667
0.388478
0.264169
0.213239
0.201945
1.8568
1.76041
1.63585
1.48386
1.30135
1.08182
0.827604
0.55741
0.337282
0.24105
0.209258
0.200608
1.81142
1.70773
1.57814
1.42036
1.23164
1.00555
0.746578
0.475474
0.292669
0.216786
0.204652
0.198079
1.75951
1.64696
1.51151
1.34679
1.15068
0.917102
0.652177
0.389258
0.253633
0.194008
0.196867
0.186927
1.65319
1.52152
1.37404
1.19467
0.983118
0.734697
0.454406
0.246612
0.187335
0.147348
0.17173
0.168017
1.45169
1.28371
1.12018
0.917234
0.681359
0.415629
0.177559
0.0865901
0.0628299
0.05021
0.0595474
0.0547452
1.21164
0.994004
0.818021
0.589524
0.326711
0.101748
0.0244921
0.0100918
0.00693737
0.00552153
0.00533572
0.00490872
0.953237
0.65881
0.474351
0.192219
0.0504047
0.00573739
0.000968773
0.000800336
0.000788167
0.00080467
0.000709233
0.000520126
0.739142
0.309693
0.116274
0.020122
0.00272096
0.000723958
0.000777566
0.000906798
0.00150034
0.00271875
0.00435182
0.00549926
0.713157
0.344906
0.201999
0.0816334
0.0318009
0.0082413
0.00298838
0.000886069
0.000652054
0.000605181
0.00166392
0.00375644
0.897343
0.635333
0.510297
0.362411
0.22677
0.104974
0.0380082
0.00981325
0.00323748
0.000816435
0.000541946
0.000592209
1.12884
0.918779
0.775187
0.620137
0.482079
0.350892
0.214318
0.088088
0.030414
0.00778936
0.0020543
0.000452004
1.33773
1.15947
1.00558
0.848096
0.702648
0.562744
0.428632
0.308304
0.166732
0.0621522
0.0167672
0.00329795
1.50641
1.35086
1.19375
1.03538
0.88635
0.742655
0.603016
0.484781
0.364861
0.240631
0.100421
0.028398
1.62708
1.48789
1.3312
1.17261
1.02262
0.879292
0.734465
0.617502
0.502838
0.388981
0.281151
0.144473
1.69234
1.5629
1.4077
1.24924
1.0986
0.955664
0.811518
0.694932
0.58397
0.475268
0.369705
0.283338
0.205578
0.0856415
0.0412646
0.0179446
0.00465078
0.00231761
0.00182272
0.00165604
0.06049
0.016935
0.00271626
0.0015739
0.000118159
0.000362855
0.000355171
0.000675272
0.00468155
0.000991117
6.31502e-05
0.0117548
0.000276082
0.00408535
0.00427569
0.00443945
0.000315718
0.000370368
0.000629686
0.00465011
0.00418544
0.0045586
0.00449007
0.00451569
0.00499282
0.00456871
0.00437178
0.00454444
0.00450523
0.00449191
0.00450129
0.00449503
0.00619471
0.00468683
0.00462061
0.00452821
0.00450626
0.00449141
0.0044999
0.0044975
0.00276628
0.00449493
0.0045947
0.00452085
0.00450666
0.00449026
0.00450294
0.00449329
0.000438269
0.00165577
0.00385442
0.00437117
0.00444972
0.00452313
0.00448655
0.00450479
0.000722699
0.000146777
0.00099047
0.00112059
0.00353564
0.00447505
0.00450575
0.00450472
0.00620826
0.000608107
0.000729728
3.26416e-05
0.000164882
0.00231619
0.00436004
0.00456049
0.0456613
0.0123209
0.00709582
0.000977468
0.000747145
8.59533e-05
0.0007695
0.00229045
0.144805
0.0759831
0.0443427
0.0232563
0.00922597
0.0017371
0.00082285
0.000861797
)
;

boundaryField
{
    walls
    {
        type            zeroGradient;
    }
    inlet
    {
        type            fixedValue;
        value           uniform 0;
    }
    outlet
    {
        type            inletOutlet;
        inletValue      uniform 0;
        value           nonuniform List<scalar> 
20
(
1.97746
1.96853
1.95164
1.92717
1.89546
1.8568
1.81142
1.75951
1.65319
1.45169
1.21164
0.953237
0.739142
0.713157
0.897343
1.12884
1.33773
1.50641
1.62708
1.69234
)
;
    }
}


// ************************************************************************* //
