/*--------------------------------*- C++ -*----------------------------------*\
  =========                 |
  \\      /  F ield         | OpenFOAM: The Open Source CFD Toolbox
   \\    /   O peration     | Website:  https://openfoam.org
    \\  /    A nd           | Version:  8
     \\/     M anipulation  |
\*---------------------------------------------------------------------------*/
FoamFile
{
    version     2.0;
    format      ascii;
    class       volScalarField;
    location    "400";
    object      p;
}
// * * * * * * * * * * * * * * * * * * * * * * * * * * * * * * * * * * * * * //

dimensions      [0 2 -2 0 0 0 0];

internalField   nonuniform List<scalar> 
336
(
945.652
2701.73
4507.22
6271.82
7981.58
9676.99
11324
12707.5
13697.9
13645.6
13201.6
10920.8
956.505
2734.11
4554.68
6332.35
8055.88
9761.44
11407.3
12768.4
13724.9
13630.3
13183
10948.5
965.179
2760.89
4594.83
6383.94
8118.72
9832.29
11477.1
12821.3
13755.1
13628.5
13172.2
10938.8
973.414
2786.2
4631.92
6431.32
8175.85
9896.97
11543.2
12880.5
13800.7
13648.2
13169.4
10891.4
981.954
2812.56
4669.2
6478.49
8232.28
9961.73
11612.4
12951.1
13857.8
13678
13172.3
10811.6
991.192
2840.84
4707.81
6526.54
8289.64
10028.2
11686.3
13031.8
13915.3
13706.8
13183.7
10683
1001.17
2871.28
4748.16
6575.96
8348.24
10096.7
11768.3
13118
13962
13730.3
13205.2
10471.5
1011.99
2905.11
4790.2
6625.98
8405.96
10166.2
11860.7
13201.4
13989.6
13741.7
13206.4
10337.1
1036.49
2983.11
4875.7
6727
8518.45
10305.5
12012.3
13287.6
13971.2
13712.6
13115
10918.9
1086.62
3128.38
5030.26
6911.6
8733.23
10563.2
12157.4
13216
13786.6
13620.8
13120.4
11703.2
1146.39
3301.09
5222.79
7144.48
8983.2
10630.2
11986.5
12901.1
13441.3
13504.8
13209.3
12488.8
1246.69
3513.6
5506.18
7322.37
8967.5
10448
11727
12612.9
13111.6
13360.5
13255.3
12958.7
1380.45
3714.83
5587.64
7298.36
8869.65
10286.4
11466.1
12348.5
12876.8
13234.3
13306.6
13290.6
1350.69
3669.45
5555.01
7265.02
8754.32
10112.1
11250.3
12103.7
12677.2
13110.1
13352.3
13581.1
1234.24
3468.53
5409.43
7113.01
8640.56
9959.92
11057.2
11896.2
12500.3
12999.9
13372.5
13804.1
1153.29
3300.4
5244.29
6912.36
8413.8
9747.08
10866.6
11712.2
12370.4
12928.1
13364.2
13980.6
1086.3
3157.95
5094.51
6763.11
8243.32
9533.66
10607.6
11485.7
12237.9
12861.5
13374.8
14115.8
1029.48
3032.8
4953.42
6620.16
8095.61
9372.38
10433.3
11274.7
12012.2
12755.4
13387.9
14240.2
975.678
2911.42
4815.53
6476.07
7952.17
9218.57
10276.1
11116.5
11838.7
12533.8
13232.3
14311.6
912.475
2768.25
4655.1
6313.74
7790.26
9049.73
10106.6
10946.4
11650.8
12322.2
12960.2
14067.3
13098.8
15809.1
17070.2
17535.7
17691.6
17722.3
17744.8
17767.4
13308.6
15844.7
16938
17462.7
17650
17713.2
17741
17762.7
13710
15779.7
16838.8
17378
17613.6
17699.5
17737.5
17757.5
14173.6
15856.8
16790.3
17344.2
17587.2
17693.7
17735.4
17754.7
14526
15949.1
16803.5
17329.2
17579
17691.5
17735.1
17753.5
14806.9
16061.3
16852.7
17344.5
17583
17696.8
17736.8
17754.5
15056.4
16189.9
16938.9
17375.7
17605.9
17704.9
17742.5
17757.4
15265.2
16358.2
17046.3
17429.9
17639.4
17720.5
17750.2
17762.4
15473.8
16548.2
17182.4
17496.9
17688.2
17738.9
17761.4
17768.4
15642.6
16775
17338.9
17587.8
17745.7
17761.6
17773.8
17775.5
15835.7
17045.5
17518.2
17709.1
17809.5
17791.7
17787
17783.2
15846
17160.3
17658.2
17801.3
17872.3
17816.7
17794.6
17789.6
)
;

boundaryField
{
    walls
    {
        type            zeroGradient;
    }
    inlet
    {
        type            zeroGradient;
    }
    outlet
    {
        type            fixedValue;
        value           uniform 0;
    }
}


// ************************************************************************* //
