/*--------------------------------*- C++ -*----------------------------------*\
  =========                 |
  \\      /  F ield         | OpenFOAM: The Open Source CFD Toolbox
   \\    /   O peration     | Website:  https://openfoam.org
    \\  /    A nd           | Version:  8
     \\/     M anipulation  |
\*---------------------------------------------------------------------------*/
FoamFile
{
    version     2.0;
    format      ascii;
    class       surfaceScalarField;
    location    "400";
    object      phi;
}
// * * * * * * * * * * * * * * * * * * * * * * * * * * * * * * * * * * * * * //

dimensions      [0 3 -1 0 0 0 0];

internalField   nonuniform List<scalar> 
632
(
-0.0142149
-0.000110524
-0.0140959
-0.000119273
-0.0140505
-4.59011e-05
-0.014055
4.11321e-06
-0.014113
5.62935e-05
-0.0140704
-4.313e-05
-0.0135622
-0.000508782
-0.0117893
-0.00177143
-0.00781591
-0.00397338
-0.000614935
-0.00719627
0.00616105
-0.00677849
0.0061556
-0.041505
-0.000429295
-0.0411023
-0.000522236
-0.0409122
-0.000236018
-0.0408546
-5.34944e-05
-0.040893
9.3218e-05
-0.0405859
-0.000350192
-0.0389534
-0.0021485
-0.0339058
-0.00682113
-0.0235953
-0.0142779
-0.00535158
-0.0254416
0.0106798
-0.0227849
0.0168726
-0.0677678
-0.000949343
-0.0670649
-0.00122583
-0.066704
-0.000597537
-0.0665473
-0.000210672
-0.0664898
3.32698e-05
-0.0658299
-0.00100924
-0.0630786
-0.00489909
-0.0552222
-0.0146738
-0.0400832
-0.0294188
-0.014134
-0.0513818
0.00860027
-0.0455225
0.0254812
-0.0930986
-0.00165798
-0.0921043
-0.00222045
-0.0915752
-0.0011271
-0.0913198
-0.000466988
-0.0911479
-0.00014143
-0.0901288
-0.00202962
-0.0863708
-0.00866491
-0.0763622
-0.0246861
-0.057965
-0.0478079
-0.0276307
-0.0817126
-3.06681e-05
-0.0731157
0.0254595
-0.117584
-0.0025391
-0.116326
-0.00347933
-0.115657
-0.00179667
-0.115338
-0.000784988
-0.115084
-0.000397564
-0.113769
-0.00334272
-0.109226
-0.0132094
-0.0979355
-0.0359755
-0.0780167
-0.0677304
-0.0463645
-0.113345
-0.0160547
-0.10341
0.00945057
-0.1413
-0.00356414
-0.139825
-0.00495377
-0.139071
-0.00255232
-0.138758
-0.00109955
-0.1385
-0.000658651
-0.137025
-0.00481785
-0.132064
-0.0181717
-0.120599
-0.0474403
-0.100963
-0.0873615
-0.070614
-0.14369
-0.0400469
-0.134018
-0.0306291
-0.164318
-0.00469856
-0.162695
-0.00657623
-0.161934
-0.00331464
-0.161731
-0.00130045
-0.161598
-0.00079181
-0.160176
-0.00623987
-0.155369
-0.0229857
-0.144939
-0.0578743
-0.127269
-0.105035
-0.100436
-0.170491
-0.0723536
-0.162086
-0.102946
-0.186703
-0.0058983
-0.185028
-0.00825192
-0.184365
-0.00398105
-0.184407
-0.00126219
-0.184584
-0.00061773
-0.183547
-0.00727275
-0.179726
-0.0267965
-0.171437
-0.066152
-0.156869
-0.119598
-0.135717
-0.191638
-0.112447
-0.185397
-0.215434
-0.604542
-0.00925342
-0.600337
-0.012454
-0.599656
-0.00466441
-0.60174
0.000824976
-0.604978
0.00262166
-0.606905
-0.00534514
-0.606345
-0.0273644
-0.598476
-0.0740221
-0.576474
-0.141598
-0.55522
-0.212868
-0.511262
-0.229346
-0.24373
-0.482946
-0.751027
-0.0117054
-0.748661
-0.0148265
-0.751985
-0.00134758
-0.761293
0.0101247
-0.77621
0.0175332
-0.800329
0.0187809
-0.824319
-0.00336152
-0.831092
-0.0672292
-0.827638
-0.145048
-0.831952
-0.20854
-0.829938
-0.231386
-0.217552
-0.856133
-0.88939
-0.0120213
-0.891289
-0.0129258
-0.90143
0.0087933
-0.924052
0.03275
-0.952908
0.04639
-0.96994
0.035814
-0.956249
-0.0170618
-0.93696
-0.0865111
-0.930492
-0.151511
-0.929721
-0.209297
-0.934266
-0.22684
-0.201975
-0.949829
-1.01589
-0.00687838
-1.02671
-0.00211403
-1.04249
0.0245725
-1.05642
0.0466697
-1.04486
0.0348149
-1.01093
0.00188428
-0.979827
-0.0481638
-0.957473
-0.108856
-0.944173
-0.164809
-0.940171
-0.213274
-0.937918
-0.229084
-0.203166
-0.93672
-1.10862
0.00839389
-1.12792
0.0171776
-1.12434
0.0209963
-1.09221
0.0145391
-1.05291
-0.00448448
-1.01658
-0.0344404
-0.985765
-0.0789911
-0.963398
-0.13121
-0.947418
-0.180787
-0.940176
-0.220511
-0.931847
-0.237412
-0.210187
-0.924804
-1.08031
0.0167494
-1.08973
0.0266
-1.08854
0.0198003
-1.07399
-1.16077e-05
-1.05007
-0.0284074
-1.02013
-0.0643882
-0.99214
-0.106984
-0.97019
-0.153155
-0.953126
-0.197843
-0.941192
-0.232412
-0.92875
-0.249822
-0.223839
-0.915075
-0.956664
0.0148834
-0.95312
0.0230548
-0.952574
0.019256
-0.960042
0.00745752
-0.973579
-0.0148711
-0.984007
-0.0539612
-0.982489
-0.108505
-0.970055
-0.165575
-0.955925
-0.211973
-0.941316
-0.247008
-0.925195
-0.265936
-0.242869
-0.90614
-0.809978
0.00993868
-0.803065
0.0161416
-0.799729
0.0159219
-0.802373
0.0101009
-0.814648
-0.00259913
-0.842163
-0.0264497
-0.885664
-0.0650022
-0.923838
-0.127395
-0.939876
-0.195929
-0.936541
-0.250326
-0.92279
-0.279669
-0.265639
-0.899986
-0.653358
0.00520973
-0.646083
0.00886618
-0.641002
0.0108419
-0.639368
0.00846811
-0.644488
0.0025195
-0.661306
-0.00963158
-0.696028
-0.0302766
-0.758284
-0.0651291
-0.83442
-0.119797
-0.886632
-0.198103
-0.904492
-0.261795
-0.275051
-0.895078
-0.486613
0.00186013
-0.481067
0.0033191
-0.475591
0.00536769
-0.47195
0.00482716
-0.472167
0.00273619
-0.479734
-0.00206334
-0.499498
-0.0105068
-0.538646
-0.0259745
-0.60752
-0.0509233
-0.71413
-0.0914782
-0.812122
-0.163795
-0.229714
-0.85747
-0.30699
0.000197287
-0.304065
0.000393276
-0.300075
0.00137878
-0.296635
0.00138798
-0.294955
0.00105549
-0.297023
6.07479e-06
-0.305645
-0.00187966
-0.32583
-0.00578435
-0.36447
-0.0122814
-0.432685
-0.0232534
-0.552535
-0.0439407
-0.0930995
-0.689164
-0.110187
-0.109794
-0.108415
-0.107027
-0.105972
-0.105965
-0.107844
-0.113629
-0.125909
-0.149162
-0.193104
-0.286207
-0.507265
0.02434
-0.633306
0.125997
-0.716602
0.083355
-0.768191
0.0515474
-0.789912
0.0217136
-0.794945
0.00500227
-0.797305
0.00234257
0.00269618
-0.858714
0.0269476
-0.835822
0.103089
-0.817069
0.0646257
-0.807179
0.0416299
-0.802286
0.0168523
-0.801519
0.0042873
-0.800856
0.00168127
0.00179737
-0.910524
-0.0122963
-0.850967
0.0435371
-0.823855
0.037539
-0.809585
0.0272694
-0.803377
0.0106237
-0.80144
0.00231506
-0.800714
0.000937601
0.00109969
-0.894589
-0.0544041
-0.84975
-0.0013394
-0.825262
0.0130913
-0.810275
0.0122744
-0.804159
0.00451749
-0.801619
-0.000183412
-0.800538
-0.000148131
0.000524548
-0.885862
-0.0932556
-0.847506
-0.0396656
-0.825738
-0.00868019
-0.810763
-0.00283606
-0.804293
-0.00199601
-0.801563
-0.00293961
-0.800561
-0.00116071
-2.01588e-05
-0.877922
-0.130393
-0.8454
-0.0722393
-0.825188
-0.0288274
-0.810482
-0.017545
-0.804485
-0.00798801
-0.80131
-0.00608545
-0.800402
-0.00208182
-0.000458112
-0.869547
-0.166922
-0.84219
-0.0995658
-0.822698
-0.0483227
-0.810005
-0.0303452
-0.804014
-0.0140076
-0.80102
-0.00910753
-0.80028
-0.00283743
-0.000731107
-0.862518
-0.204367
-0.83766
-0.124436
-0.820301
-0.0656643
-0.808839
-0.0418428
-0.803361
-0.0194936
-0.8008
-0.0116721
-0.800219
-0.00343844
-0.000970289
-0.855659
-0.243801
-0.832637
-0.147461
-0.817593
-0.0807049
-0.807648
-0.0518112
-0.802456
-0.0246562
-0.800506
-0.0136434
-0.800123
-0.00385212
-0.00109655
-0.848435
-0.252862
-0.82507
-0.170835
-0.81377
-0.0920146
-0.805711
-0.0598737
-0.800782
-0.0295468
-0.799997
-0.0144409
-0.800058
-0.00381574
-0.00116404
-0.777735
-0.164322
-0.799681
-0.148905
-0.803655
-0.0880496
-0.803049
-0.0604764
-0.798865
-0.0336998
-0.799385
-0.0139307
-0.800008
-0.0032204
-0.00118487
-0.450531
-0.599438
-0.687487
-0.74796
-0.781661
-0.795594
-0.798815
)
;

boundaryField
{
    walls
    {
        type            calculated;
        value           uniform 0;
    }
    inlet
    {
        type            calculated;
        value           nonuniform List<scalar> 
12
(
-0.8
-0.8
-0.8
-0.8
-0.8
-0.8
-0.8
-0.8
-0.8
-0.8
-0.8
-0.8
)
;
    }
    outlet
    {
        type            calculated;
        value           nonuniform List<scalar> 
20
(
0.0143255
0.0418246
0.0682878
0.0938081
0.118464
0.142325
0.165452
0.187902
0.607896
0.753477
0.889705
1.01075
1.09335
1.07195
0.958531
0.814922
0.658087
0.489963
0.308653
0.110385
)
;
    }
}


// ************************************************************************* //
