/*--------------------------------*- C++ -*----------------------------------*\
  =========                 |
  \\      /  F ield         | OpenFOAM: The Open Source CFD Toolbox
   \\    /   O peration     | Website:  https://openfoam.org
    \\  /    A nd           | Version:  8
     \\/     M anipulation  |
\*---------------------------------------------------------------------------*/
FoamFile
{
    version     2.0;
    format      ascii;
    class       volVectorField;
    location    "400";
    object      U;
}
// * * * * * * * * * * * * * * * * * * * * * * * * * * * * * * * * * * * * * //

dimensions      [0 1 -1 0 0 0 0];

internalField   nonuniform List<vector> 
336
(
(-7.15976 0.00328857 1.69713e-17)
(-7.05966 0.0102611 -5.79446e-20)
(-7.03352 0.0148483 -1.4896e-18)
(-7.01586 0.0201402 -6.33168e-17)
(-7.0404 0.0278104 -9.32115e-17)
(-7.07186 0.0372774 -1.0247e-16)
(-6.98808 0.0457083 -9.58352e-17)
(-6.5627 0.0457602 -2.57554e-16)
(-5.1341 0.0175698 -1.8088e-16)
(-2.72415 -0.0468028 -3.644e-16)
(2.42501 -0.0862114 -3.23292e-17)
(2.83368 0.203209 -7.47802e-17)
(-20.9078 -0.0144158 5.08818e-17)
(-20.6037 -0.0163677 -1.18529e-18)
(-20.4945 -0.00654582 -3.19085e-18)
(-20.4161 1.36319e-05 -1.91505e-16)
(-20.4401 0.00616223 -2.81287e-16)
(-20.4513 -0.00810971 -3.09149e-16)
(-20.118 -0.0712159 -2.83361e-16)
(-18.8183 -0.23796 -7.81515e-16)
(-14.9451 -0.51808 -5.41365e-16)
(-8.72613 -0.93726 -1.13145e-15)
(3.85131 -0.848606 -8.91241e-17)
(5.48705 0.75255 -2.3155e-16)
(-34.1394 -0.0418304 8.54793e-17)
(-33.6347 -0.0524903 -4.5778e-18)
(-33.4262 -0.0248 -2.88466e-18)
(-33.2762 -0.0074275 -3.14227e-16)
(-33.2726 0.00498391 -4.73557e-16)
(-33.2153 -0.0402065 -5.20873e-16)
(-32.5971 -0.216123 -4.5401e-16)
(-30.464 -0.664314 -1.33321e-15)
(-24.6061 -1.35933 -8.96914e-16)
(-15.5654 -2.40114 -1.54804e-15)
(1.93092 -2.12846 -5.43269e-17)
(5.28358 1.45334 -4.07702e-16)
(-46.8994 -0.0820059 1.17022e-16)
(-46.2052 -0.107744 -7.03904e-18)
(-45.8952 -0.0534815 -2.0233e-17)
(-45.6783 -0.0203038 -4.23068e-16)
(-45.6429 -0.00156188 -6.72125e-16)
(-45.5028 -0.0937956 -7.41208e-16)
(-44.6077 -0.429462 -7.37375e-16)
(-41.7437 -1.25603 -1.93379e-15)
(-34.4513 -2.47246 -1.329e-15)
(-23.6148 -4.28448 -2.03221e-15)
(-3.48801 -3.81013 -4.80962e-16)
(1.98943 1.8653 -6.19823e-16)
(-59.2275 -0.134221 1.46232e-16)
(-58.362 -0.181785 -4.52223e-18)
(-57.9598 -0.0931168 -5.0713e-17)
(-57.6954 -0.0396808 -5.28266e-16)
(-57.6443 -0.0162302 -8.77485e-16)
(-57.4368 -0.171177 -9.7113e-16)
(-56.3133 -0.705617 -9.7448e-16)
(-52.8895 -1.96572 -2.42294e-15)
(-44.8581 -3.74595 -1.93869e-15)
(-33.2778 -6.35675 -2.56311e-15)
(-12.5291 -5.74153 -8.20392e-16)
(-5.08449 1.53132 -8.77724e-16)
(-71.158 -0.196875 1.78095e-16)
(-70.1476 -0.271812 1.88581e-17)
(-69.6739 -0.140481 -6.81342e-17)
(-69.3951 -0.0616228 -6.3874e-16)
(-69.3646 -0.034302 -1.08916e-15)
(-69.133 -0.264491 -1.21247e-15)
(-67.8719 -1.02493 -1.31071e-15)
(-64.1597 -2.72734 -2.81242e-15)
(-56.2291 -5.06686 -2.66745e-15)
(-44.8782 -8.41979 -3.1917e-15)
(-25.1358 -7.74714 -1.1601e-15)
(-16.5757 -0.136864 -1.17958e-15)
(-82.7212 -0.267997 2.13015e-16)
(-81.6022 -0.37449 4.13547e-17)
(-81.0897 -0.191253 -6.8066e-17)
(-80.8424 -0.0804015 -7.04177e-16)
(-80.8896 -0.0488025 -1.30488e-15)
(-80.7057 -0.362515 -1.4644e-15)
(-79.4482 -1.35444 -1.76253e-15)
(-75.8763 -3.45928 -3.02399e-15)
(-68.8362 -6.30693 -3.43715e-15)
(-58.604 -10.3016 -3.40858e-15)
(-41.1471 -9.62539 -1.53297e-15)
(-33.0385 -4.26307 -1.51834e-15)
(-93.9446 -0.34542 2.47025e-16)
(-92.764 -0.485514 6.57536e-17)
(-92.2603 -0.241611 -6.61011e-17)
(-92.1019 -0.0913075 -7.57786e-16)
(-92.3076 -0.055709 -1.53423e-15)
(-92.274 -0.455381 -1.72246e-15)
(-91.2355 -1.63085 -2.186e-15)
(-88.4158 -4.03705 -3.20572e-15)
(-82.7282 -7.32822 -4.24674e-15)
(-74.3738 -11.8593 -3.81562e-15)
(-60.3754 -11.3656 -1.95239e-15)
(-54.6539 -10.8111 -1.87603e-15)
(-113.954 -0.494124 3.20507e-16)
(-112.76 -0.687672 1.18843e-16)
(-112.366 -0.325797 -5.43491e-18)
(-112.491 -0.0862189 -8.53483e-16)
(-113.18 -0.0516377 -1.99119e-15)
(-113.663 -0.591488 -2.20275e-15)
(-113.713 -1.95418 -2.95219e-15)
(-113.405 -4.69889 -3.98087e-15)
(-110.297 -8.82217 -4.6993e-15)
(-106.586 -14.2928 -5.1726e-15)
(-100.205 -15.1825 -2.76938e-15)
(-99.2249 -18.3836 -2.4876e-15)
(-141.241 -0.709242 4.49462e-16)
(-140.375 -0.939291 2.50348e-16)
(-140.412 -0.299063 1.6435e-17)
(-141.554 0.165423 -1.12801e-15)
(-143.967 0.384319 -2.60447e-15)
(-146.947 0.38408 -2.80626e-15)
(-152.856 -0.810343 -3.71438e-15)
(-156.256 -4.64659 -3.9595e-15)
(-155.041 -9.70821 -4.21529e-15)
(-155.733 -13.5648 -4.19731e-15)
(-155.693 -14.6947 -4.2008e-15)
(-160.393 -13.8973 -4.68472e-15)
(-166.776 -0.84545 6.47871e-16)
(-166.68 -1.016 4.70335e-16)
(-167.652 0.0442571 2.34241e-16)
(-170.322 1.32654 -1.14996e-15)
(-176.126 2.48363 -2.80514e-15)
(-181.05 2.43331 -2.81152e-15)
(-182.498 -0.226697 -3.19401e-15)
(-176.174 -4.94682 -3.12615e-15)
(-175.05 -9.79204 -3.74286e-15)
(-174.029 -13.7623 -3.61105e-15)
(-174.472 -15.033 -2.58363e-15)
(-178.954 -13.5215 -3.29448e-15)
(-189.412 -0.720565 9.62813e-16)
(-191.495 -0.595672 9.09848e-16)
(-193.558 1.57594 7.67258e-16)
(-197.36 3.22267 -1.47116e-17)
(-198.65 3.41502 -4.12484e-16)
(-193.218 1.42146 4.79617e-16)
(-185.664 -2.21171 -1.31749e-16)
(-181.79 -6.23705 1.42387e-16)
(-177.406 -10.2641 -6.15637e-16)
(-176.614 -13.7733 -1.45777e-15)
(-176.072 -14.867 -4.96154e-16)
(-177.984 -13.5887 -1.70764e-15)
(-204.799 0.0994118 1.21254e-15)
(-210.868 0.696975 1.72753e-15)
(-212.168 1.65043 2.37234e-15)
(-209.515 2.44205 4.21093e-15)
(-200.012 0.786435 5.79218e-15)
(-194.724 -1.05748 5.51197e-15)
(-186.444 -4.12401 6.64727e-15)
(-183.167 -7.85405 4.39629e-15)
(-178.29 -11.0573 8.234e-15)
(-176.975 -14.0488 6.02576e-15)
(-175.796 -14.9592 5.49984e-15)
(-175.319 -13.3193 5.72037e-15)
(-200.812 0.886467 9.41299e-16)
(-204.18 1.3959 6.2566e-16)
(-204.589 0.993007 2.49569e-16)
(-203.577 -0.276687 -1.0649e-15)
(-199.22 -1.45229 -1.68342e-15)
(-194.441 -3.53659 -2.54986e-15)
(-188.038 -6.11219 -2.7559e-15)
(-184.019 -9.2639 -5.71606e-15)
(-179.959 -12.4978 -2.54276e-15)
(-177.481 -14.7555 -5.49074e-15)
(-175.713 -15.9116 -1.49577e-15)
(-173.767 -13.9782 -3.83199e-15)
(-179.619 1.14779 1.01251e-15)
(-179.064 1.72269 1.1519e-15)
(-178.381 1.23494 1.05411e-15)
(-178.85 0.0395245 1.25928e-15)
(-181.096 -1.95993 1.95393e-15)
(-183.939 -4.5715 3.23568e-15)
(-185.045 -7.78176 1.92264e-15)
(-183.416 -10.7341 2.49097e-15)
(-180.446 -13.4114 1.79453e-15)
(-178.034 -15.6342 -4.73244e-17)
(-175.276 -16.6524 2.56304e-15)
(-172.568 -15.2941 -5.76166e-16)
(-152.728 0.824146 9.86983e-16)
(-150.992 1.31826 1.14364e-15)
(-150.118 1.20976 1.30701e-15)
(-149.808 0.726517 1.32774e-15)
(-151.051 -0.38869 6.53348e-16)
(-154.368 -2.63938 1.77718e-16)
(-161.382 -6.15937 -1.557e-15)
(-170.841 -10.687 -1.38203e-15)
(-175.668 -14.1553 -7.37179e-16)
(-176.745 -16.5246 -1.25154e-16)
(-174.89 -18.1719 1.27354e-15)
(-171.755 -16.4865 1.26792e-15)
(-123.351 0.478467 8.18754e-16)
(-121.646 0.801338 1.07361e-15)
(-120.584 0.89429 9.05086e-16)
(-119.799 0.666538 8.69935e-16)
(-119.939 0.113019 5.15922e-16)
(-121.694 -0.928951 5.67874e-16)
(-126.308 -2.71897 -6.27314e-16)
(-134.755 -6.0966 -2.78608e-15)
(-149.578 -11.1515 -3.03545e-15)
(-163.368 -15.9842 -5.61309e-15)
(-169.47 -18.1578 -4.02174e-15)
(-170.696 -18.2843 -3.92282e-15)
(-91.8462 0.208977 6.06813e-16)
(-90.6261 0.370627 8.32275e-16)
(-89.7039 0.53084 5.95058e-16)
(-88.662 0.450132 5.41819e-16)
(-88.2908 0.238769 4.0253e-16)
(-88.7321 -0.246994 3.51916e-16)
(-91.1565 -1.05673 -2.36521e-16)
(-96.2397 -2.47468 -2.20987e-15)
(-105.832 -4.87958 -2.53488e-15)
(-121.819 -9.44105 -4.26443e-15)
(-146.355 -15.3265 -2.05074e-15)
(-158.606 -17.4989 -3.8775e-15)
(-57.8646 0.0458731 3.6795e-16)
(-57.2546 0.0894743 4.77665e-16)
(-56.6887 0.199596 3.44011e-16)
(-55.8543 0.201113 3.11146e-16)
(-55.3598 0.143821 2.68591e-16)
(-55.2214 0.00729662 3.18207e-16)
(-56.1369 -0.24575 -1.05909e-16)
(-58.5472 -0.749839 -1.19474e-15)
(-63.6996 -1.57998 -1.04434e-15)
(-72.9715 -2.90954 -1.84462e-15)
(-89.8096 -6.09975 -8.68295e-16)
(-117.668 -11.5607 -1.63432e-15)
(-20.7018 -0.0677654 1.24092e-16)
(-20.6213 -0.153371 2.13855e-16)
(-20.4883 -0.162196 1.14616e-16)
(-20.1739 -0.178811 1.03048e-16)
(-19.9411 -0.18801 1.07493e-16)
(-19.7863 -0.216843 3.64562e-16)
(-19.932 -0.23886 2.60637e-16)
(-20.5446 -0.289293 -3.29655e-16)
(-22.1175 -0.425836 2.09778e-16)
(-25.0824 -0.644524 -5.37017e-16)
(-31.401 -1.08416 -3.01676e-16)
(-41.607 -3.00716 -7.63029e-16)
(-75.5267 0.718686 -1.29935e-15)
(-110.225 9.72357 -1.33018e-15)
(-128.634 3.86886 -2.0592e-15)
(-141.175 3.55365 -1.839e-15)
(-147.541 1.2469 1.20027e-15)
(-148.837 0.468316 -3.727e-16)
(-149.067 0.0992971 8.84427e-17)
(-149.739 0.175969 -1.28549e-16)
(-157.649 2.56367 -5.15541e-15)
(-160.52 6.09574 -5.79107e-15)
(-154.284 4.7819 -6.47138e-15)
(-152.547 2.04172 -6.4789e-15)
(-150.65 1.41325 -7.08227e-15)
(-150.361 0.255529 -7.51283e-15)
(-150.115 0.12713 -4.76375e-15)
(-150.046 0.0632683 -2.80481e-15)
(-175.67 1.45 -2.91212e-15)
(-163.124 4.79713 -2.87443e-15)
(-156.436 2.54929 -2.43716e-15)
(-152.809 2.41765 -3.40854e-15)
(-151.127 0.681956 1.37682e-15)
(-150.339 0.358961 -9.84543e-16)
(-150.18 0.0665245 1.51897e-16)
(-150.028 0.0715264 -6.50883e-17)
(-171.466 -2.02134 -1.97348e-15)
(-162.33 1.04296 -2.17694e-15)
(-156.577 1.71571 -2.38633e-15)
(-153 0.878788 -1.86814e-15)
(-151.184 0.650179 1.31185e-15)
(-150.513 0.0210325 -6.7877e-16)
(-150.127 0.0545742 4.88676e-16)
(-150.028 0.020269 -1.90818e-16)
(-169.833 -4.58793 2.42666e-15)
(-161.294 -1.12255 6.24145e-15)
(-156.66 -0.0537578 2.01173e-15)
(-153.022 0.450129 1.63782e-15)
(-151.282 -0.0139406 6.33096e-15)
(-150.483 0.0292694 -1.13204e-15)
(-150.159 -0.0669065 3.44563e-15)
(-150.028 0.00590992 1.88516e-15)
(-167.866 -6.61393 3.24859e-15)
(-160.624 -3.43373 -3.41757e-15)
(-156.474 -1.09161 6.72897e-15)
(-152.915 -0.636344 -1.85347e-15)
(-151.3 -0.184353 1.54559e-15)
(-150.485 -0.289531 -9.75561e-16)
(-150.113 -0.0751736 5.05535e-16)
(-150.021 -0.0383568 -1.67989e-16)
(-165.719 -8.68054 1.49612e-15)
(-159.963 -5.21597 -5.27381e-16)
(-155.792 -2.29927 -3.49856e-15)
(-152.709 -1.33328 -5.68883e-16)
(-151.247 -0.659884 -3.77894e-15)
(-150.397 -0.407671 -1.46683e-15)
(-150.086 -0.158966 -2.99813e-15)
(-150.011 -0.0481527 -1.70459e-15)
(-164.298 -11.1418 2.22588e-15)
(-158.833 -6.49492 2.58024e-15)
(-155.239 -3.42349 1.99596e-15)
(-152.347 -2.02512 2.63806e-15)
(-151.148 -0.935804 -2.28427e-15)
(-150.288 -0.623998 1.03351e-15)
(-150.092 -0.185024 -1.16283e-15)
(-149.99 -0.0716953 9.29185e-16)
(-163.133 -12.9406 -2.1901e-15)
(-157.441 -8.24019 1.32219e-15)
(-154.741 -4.18844 -1.07388e-15)
(-151.909 -2.76833 6.38391e-16)
(-151.048 -1.22783 -4.43152e-16)
(-150.145 -0.757074 1.84868e-16)
(-150.087 -0.247823 -1.6623e-16)
(-149.96 -0.0608752 1.46348e-16)
(-162.169 -16.2598 -2.62115e-15)
(-155.626 -9.24444 -3.77586e-15)
(-153.808 -5.11355 2.10189e-15)
(-151.477 -3.20121 -2.27853e-15)
(-150.701 -1.51507 1.87978e-15)
(-149.966 -0.892479 -1.1046e-15)
(-150.056 -0.254833 6.88261e-16)
(-149.961 -0.0928886 -3.75089e-16)
(-141.147 -12.9771 -2.03621e-15)
(-149.656 -10.0711 -1.99771e-15)
(-150.437 -5.17217 -3.23183e-15)
(-151.017 -3.25472 -2.29529e-15)
(-150.206 -1.72103 2.21032e-15)
(-149.81 -0.783038 -1.10828e-15)
(-149.994 -0.244108 4.28501e-16)
(-149.96 -0.0582535 -3.33439e-16)
(-64.8562 -7.17829 -2.69335e-15)
(-103.029 -7.27883 1.32932e-15)
(-122.423 -4.49633 -7.28319e-16)
(-135.569 -3.15328 6.00572e-16)
(-145.006 -1.71487 -4.07411e-16)
(-148.736 -0.922159 1.76119e-16)
(-149.603 -0.191175 -5.72392e-17)
(-149.838 -0.0174753 4.09768e-17)
)
;

boundaryField
{
    walls
    {
        type            noSlip;
    }
    inlet
    {
        type            fixedValue;
        value           uniform (-150 0 0);
    }
    outlet
    {
        type            pressureInletOutletVelocity;
        value           nonuniform List<vector> 
20
(
(-7.15976 0.00328857 1.69713e-17)
(-20.9078 -0.0144158 5.08818e-17)
(-34.1394 -0.0418304 8.54793e-17)
(-46.8994 -0.0820059 1.17022e-16)
(-59.2275 -0.134221 1.46232e-16)
(-71.158 -0.196875 1.78095e-16)
(-82.7212 -0.267997 2.13015e-16)
(-93.9446 -0.34542 2.47025e-16)
(-113.954 -0.494124 3.20507e-16)
(-141.241 -0.709242 4.49462e-16)
(-166.776 -0.84545 6.47871e-16)
(-189.412 -0.720565 9.62813e-16)
(-204.799 0.0994118 1.21254e-15)
(-200.812 0.886467 9.41299e-16)
(-179.619 1.14779 1.01251e-15)
(-152.728 0.824146 9.86983e-16)
(-123.351 0.478467 8.18754e-16)
(-91.8462 0.208977 6.06813e-16)
(-57.8646 0.0458731 3.6795e-16)
(-20.7018 -0.0677654 1.24092e-16)
)
;
    }
}


// ************************************************************************* //
