/*--------------------------------*- C++ -*----------------------------------*\
  =========                 |
  \\      /  F ield         | OpenFOAM: The Open Source CFD Toolbox
   \\    /   O peration     | Website:  https://openfoam.org
    \\  /    A nd           | Version:  8
     \\/     M anipulation  |
\*---------------------------------------------------------------------------*/
FoamFile
{
    version     2.0;
    format      ascii;
    class       volScalarField;
    location    "50";
    object      epsilon;
}
// * * * * * * * * * * * * * * * * * * * * * * * * * * * * * * * * * * * * * //

dimensions      [0 2 -3 0 0 0 0];

internalField   nonuniform List<scalar> 
336
(
3.31081e+06
3.21565e+06
3.19971e+06
3.14163e+06
3.12351e+06
2.93864e+06
2.60065e+06
2.31363e+06
1.94693e+06
1.84897e+06
1.71495e+06
1.98365e+06
3.12592e+06
3.04841e+06
3.03859e+06
2.99957e+06
3.00148e+06
2.84191e+06
2.53252e+06
2.26666e+06
1.95919e+06
1.93563e+06
1.94603e+06
2.25693e+06
2.87054e+06
2.81491e+06
2.82003e+06
2.81219e+06
2.84615e+06
2.73465e+06
2.48494e+06
2.27627e+06
2.08341e+06
2.21151e+06
2.48089e+06
2.91691e+06
2.58901e+06
2.55756e+06
2.58815e+06
2.62117e+06
2.69462e+06
2.64571e+06
2.48011e+06
2.36408e+06
2.3256e+06
2.66491e+06
3.27194e+06
3.95071e+06
2.31164e+06
2.3066e+06
2.3707e+06
2.45354e+06
2.57527e+06
2.59449e+06
2.53026e+06
2.53264e+06
2.67982e+06
3.25761e+06
4.24913e+06
5.31691e+06
2.06128e+06
2.08824e+06
2.19221e+06
2.32763e+06
2.50584e+06
2.59622e+06
2.63574e+06
2.7683e+06
3.11368e+06
3.93281e+06
5.33609e+06
6.94497e+06
1.85336e+06
1.92339e+06
2.06963e+06
2.25582e+06
2.48127e+06
2.63833e+06
2.77967e+06
3.04181e+06
3.58298e+06
4.63277e+06
6.45184e+06
8.71674e+06
1.70245e+06
1.82356e+06
2.00596e+06
2.23237e+06
2.48962e+06
2.70277e+06
2.93587e+06
3.31959e+06
4.04383e+06
5.30506e+06
7.49929e+06
1.04562e+07
1.49933e+06
1.71008e+06
1.93399e+06
2.20492e+06
2.4921e+06
2.7824e+06
3.15793e+06
3.73818e+06
4.73966e+06
6.28041e+06
8.87943e+06
1.28431e+07
1.15932e+06
1.42125e+06
1.64382e+06
1.91415e+06
2.21677e+06
2.57487e+06
3.07424e+06
3.80543e+06
4.93995e+06
6.5647e+06
9.11694e+06
1.2688e+07
922332
1.15141e+06
1.3791e+06
1.63128e+06
1.94316e+06
2.32893e+06
2.8681e+06
3.617e+06
4.69472e+06
6.15026e+06
8.19868e+06
1.07164e+07
919357
1.08449e+06
1.30742e+06
1.53892e+06
1.83763e+06
2.21193e+06
2.72293e+06
3.40392e+06
4.31882e+06
5.46977e+06
6.87911e+06
8.33374e+06
1.1871e+06
1.30645e+06
1.49311e+06
1.69903e+06
1.96216e+06
2.30395e+06
2.76608e+06
3.37903e+06
4.17026e+06
5.10856e+06
6.03493e+06
6.58561e+06
1.5862e+06
1.69738e+06
1.856e+06
2.04544e+06
2.28843e+06
2.61161e+06
3.05166e+06
3.64412e+06
4.39138e+06
5.25023e+06
5.90057e+06
6.08544e+06
1.97655e+06
2.09353e+06
2.24429e+06
2.44735e+06
2.70211e+06
3.04745e+06
3.51826e+06
4.16167e+06
4.97915e+06
5.92944e+06
6.62453e+06
6.79038e+06
2.30968e+06
2.42704e+06
2.57987e+06
2.80881e+06
3.09943e+06
3.49934e+06
4.04574e+06
4.80084e+06
5.78233e+06
6.95972e+06
8.02268e+06
8.45275e+06
2.59506e+06
2.70734e+06
2.86084e+06
3.10952e+06
3.43876e+06
3.8996e+06
4.53496e+06
5.42377e+06
6.61189e+06
8.09703e+06
9.66704e+06
1.06524e+07
2.85335e+06
2.96038e+06
3.11149e+06
3.36962e+06
3.72733e+06
4.23619e+06
4.94446e+06
5.9472e+06
7.32426e+06
9.11742e+06
1.11693e+07
1.29317e+07
3.09386e+06
3.19915e+06
3.34934e+06
3.61244e+06
3.98887e+06
4.52978e+06
5.28492e+06
6.36212e+06
7.87244e+06
9.90645e+06
1.23501e+07
1.48104e+07
3.2888e+06
3.40165e+06
3.55863e+06
3.83144e+06
4.22463e+06
4.78869e+06
5.57091e+06
6.6859e+06
8.26393e+06
1.04349e+07
1.31162e+07
1.59878e+07
2.15429e+07
2.17207e+07
1.92299e+07
1.61653e+07
1.19651e+07
2.84707e+06
166067
6907.26
1.78904e+07
1.82708e+07
1.58522e+07
1.17841e+07
4.82432e+06
406895
6425.6
39.0528
1.34505e+07
1.36785e+07
1.10765e+07
6.25425e+06
1.09142e+06
37153.5
194.716
20.0795
9.40649e+06
9.13081e+06
6.3476e+06
2.20095e+06
180342
2972.75
25.968
19.8396
6.65231e+06
5.44771e+06
2.54658e+06
452150
18928.1
178.306
20.7183
19.8754
5.54256e+06
3.59386e+06
815316
54287
1006.43
30.0266
20.5078
19.9015
6.09345e+06
4.02248e+06
1.12989e+06
106719
2863.72
42.0451
20.5491
19.9208
8.05891e+06
6.31919e+06
3.4254e+06
726168
37715.7
415.565
21.2548
19.8487
1.07687e+07
9.60816e+06
7.04029e+06
2.89573e+06
281225
5313.3
33.5873
19.8684
1.36041e+07
1.31164e+07
1.10675e+07
6.93376e+06
1.41513e+06
55107.8
343.296
20.2037
1.61416e+07
1.62154e+07
1.48227e+07
1.17506e+07
5.49754e+06
490962
8801.56
45.6115
1.7847e+07
1.82402e+07
1.72941e+07
1.53195e+07
1.20242e+07
3.14477e+06
201022
6707.77
)
;

boundaryField
{
    walls
    {
        type            zeroGradient;
    }
    inlet
    {
        type            fixedValue;
        value           uniform 20;
    }
    outlet
    {
        type            inletOutlet;
        inletValue      uniform 0;
        value           nonuniform List<scalar> 
20
(
3.31081e+06
3.12592e+06
2.87054e+06
2.58901e+06
2.31164e+06
2.06128e+06
1.85336e+06
1.70245e+06
1.49933e+06
1.15932e+06
922332
919357
1.1871e+06
1.5862e+06
1.97655e+06
2.30968e+06
2.59506e+06
2.85335e+06
3.09386e+06
3.2888e+06
)
;
    }
}


// ************************************************************************* //
