/*--------------------------------*- C++ -*----------------------------------*\
  =========                 |
  \\      /  F ield         | OpenFOAM: The Open Source CFD Toolbox
   \\    /   O peration     | Website:  https://openfoam.org
    \\  /    A nd           | Version:  8
     \\/     M anipulation  |
\*---------------------------------------------------------------------------*/
FoamFile
{
    version     2.0;
    format      ascii;
    class       volScalarField;
    location    "50";
    object      k;
}
// * * * * * * * * * * * * * * * * * * * * * * * * * * * * * * * * * * * * * //

dimensions      [0 2 -2 0 0 0 0];

internalField   nonuniform List<scalar> 
336
(
3936.33
3927.43
4013.91
4190.14
4573.67
4783.94
4736.58
4298.76
3735.01
3311.9
3090.87
3473.62
3780.83
3784
3877.17
4066.49
4461.36
4677.6
4643.25
4220.5
3714.46
3376.52
3315.05
3741.86
3573.08
3592.6
3704.89
3920.33
4332.65
4558.81
4550.72
4179.01
3793.89
3640.55
3873.02
4426.04
3342.4
3381.32
3524.49
3775.7
4208.57
4453.14
4481.89
4199.3
3994.92
4099.65
4700.94
5480.65
3112.89
3177.24
3362.59
3655.45
4108.51
4382.59
4457.1
4305.85
4318
4727.23
5720.94
6837.74
2907.4
3007.1
3243.86
3580.48
4050.27
4360.66
4497.8
4501.35
4760.33
5477.01
6861.78
8420.97
2750.02
2896.93
3190.15
3566.56
4048.3
4393.49
4612.99
4785.8
5297.91
6303.89
8059.72
10135.9
2664.68
2869.12
3215.52
3622.82
4110.99
4488.29
4798.89
5151.52
5904.34
7170.61
9251.05
11866
2604.33
2917.6
3337.51
3775.76
4268.01
4702.37
5189.27
5858.93
6989.79
8624.4
11089.9
14519.3
2330.24
2712.09
3173.52
3609.68
4126.66
4658.04
5346.31
6278.68
7630.22
9411.91
11900.9
15075
2127.49
2466.47
2963.75
3396.05
3944.6
4550.76
5349.75
6381.28
7753.66
9476.83
11621.7
13974.7
2266.52
2485.94
2977.72
3404.59
3946.77
4571.61
5383.57
6402.95
7682.24
9181.54
10805.9
12214.3
2828.73
2952.86
3358.63
3760.28
4247.28
4838.62
5604.57
6566.24
7734.16
9043.86
10268.9
10818.4
3591.2
3675.07
3999.14
4361.44
4799.56
5350.65
6072.58
6997.25
8112.81
9348.69
10279.4
10503.8
4349.83
4424.67
4691.67
5037.24
5458.22
6002.24
6722.08
7666.16
8819.65
10109.1
11062.7
11276.7
5026.01
5097.95
5325.93
5667.34
6097.41
6666.24
7425.13
8440.1
9709.62
11163.1
12414.2
12877.6
5613.5
5683.25
5881.28
6216.69
6662.4
7266.01
8078.96
9183.81
10603.8
12284.3
13943.7
14863.1
6122.39
6190.74
6365.62
6690.53
7146.64
7777.9
8635.17
9814.85
11370.4
13278.9
15308.6
16851.6
6550.36
6617.19
6776.97
7091.66
7552.27
8200.35
9083.89
10309.4
11957.8
14042.1
16360.3
18453.1
6865.46
6941.06
7101.6
7418.84
7888.98
8552.45
9453.32
10703.2
12398.9
14581.8
17066.9
19460
21812.2
21960.3
19128.1
14268.9
6903.99
1189.79
54.873
4.72894
19425.4
19567.7
16664.3
11314.9
3387.58
236.959
3.43744
1.00774
16215.8
16032.7
12788.3
6962.71
1075.55
30.844
1.05012
1.00068
13058.8
12130.6
8426.77
3077.45
241.837
3.94637
1.03158
0.995866
10697.7
8666.29
4257.37
807.32
31.8799
1.21489
1.02447
0.997476
9721.48
6830.23
1838.53
125.765
2.9067
1.16734
1.0163
0.99817
10359.9
7374.42
2351.85
215.802
5.37154
1.13503
1.01849
0.99878
12309.1
9844.49
5432.96
1198.88
57.2775
1.38605
1.02931
0.996528
14839.6
13123.8
9463.65
3880.96
351.647
5.87262
1.02467
0.996632
17326
16361.6
13391.5
7828.12
1383.12
43.0727
1.08878
1.00423
19415.2
19032.9
16701.3
11903.8
3998.83
293.567
4.50308
1.01137
20776
20672.9
18695.3
14537.5
7416.15
1333.16
67.1601
4.65753
)
;

boundaryField
{
    walls
    {
        type            zeroGradient;
    }
    inlet
    {
        type            fixedValue;
        value           uniform 1;
    }
    outlet
    {
        type            inletOutlet;
        inletValue      uniform 0;
        value           nonuniform List<scalar> 
20
(
3936.33
3780.83
3573.08
3342.4
3112.89
2907.4
2750.02
2664.68
2604.33
2330.24
2127.49
2266.52
2828.73
3591.2
4349.83
5026.01
5613.5
6122.39
6550.36
6865.46
)
;
    }
}


// ************************************************************************* //
