/*--------------------------------*- C++ -*----------------------------------*\
  =========                 |
  \\      /  F ield         | OpenFOAM: The Open Source CFD Toolbox
   \\    /   O peration     | Website:  https://openfoam.org
    \\  /    A nd           | Version:  8
     \\/     M anipulation  |
\*---------------------------------------------------------------------------*/
FoamFile
{
    version     2.0;
    format      ascii;
    class       volScalarField;
    location    "50";
    object      nut;
}
// * * * * * * * * * * * * * * * * * * * * * * * * * * * * * * * * * * * * * //

dimensions      [0 2 -1 0 0 0 0];

internalField   nonuniform List<scalar> 
336
(
0.421203
0.43171
0.453176
0.502972
0.602739
0.70092
0.776409
0.718842
0.644872
0.533909
0.501363
0.547449
0.411565
0.422737
0.445245
0.496161
0.596817
0.692912
0.766187
0.707267
0.633806
0.5301
0.508243
0.558341
0.400281
0.412664
0.438065
0.491861
0.593598
0.683979
0.750046
0.690505
0.62178
0.539372
0.544169
0.604436
0.388351
0.402338
0.431962
0.489489
0.591579
0.674577
0.728943
0.671329
0.617621
0.567615
0.607866
0.684277
0.377268
0.393886
0.429253
0.490151
0.589915
0.666274
0.706615
0.658851
0.626186
0.617387
0.693231
0.791424
0.369077
0.389726
0.432001
0.495691
0.589194
0.659182
0.69078
0.658742
0.655003
0.686477
0.794132
0.91896
0.367244
0.392691
0.442561
0.507503
0.594446
0.658464
0.688991
0.677671
0.70503
0.772002
0.906148
1.06076
0.375369
0.406274
0.463898
0.529139
0.610945
0.670801
0.705974
0.719497
0.775875
0.872298
1.02708
1.21193
0.407134
0.447999
0.518363
0.581915
0.657852
0.715246
0.767454
0.826454
0.927735
1.06589
1.24656
1.47728
0.421541
0.465781
0.551403
0.612638
0.691383
0.758391
0.836784
0.932343
1.0607
1.21446
1.39814
1.61201
0.441661
0.475516
0.57323
0.636298
0.720678
0.800304
0.89808
1.01323
1.15252
1.31424
1.48264
1.64013
0.502895
0.512855
0.610374
0.677884
0.7629
0.850375
0.95796
1.08398
1.22985
1.38709
1.52768
1.61118
0.606649
0.600668
0.679948
0.749
0.827428
0.914559
1.02203
1.14837
1.29094
1.44096
1.5726
1.59946
0.731753
0.716135
0.77553
0.836982
0.905961
0.986614
1.08756
1.20922
1.34891
1.49819
1.61169
1.63172
0.861547
0.841636
0.88271
0.93311
0.992297
1.06398
1.15591
1.27096
1.40601
1.55114
1.66269
1.68543
0.984322
0.963733
0.989546
1.02915
1.07957
1.14293
1.22646
1.33543
1.46739
1.61146
1.72885
1.76568
1.09285
1.07373
1.08816
1.11858
1.16172
1.21847
1.29533
1.39954
1.53052
1.67734
1.8101
1.86645
1.18231
1.16514
1.17208
1.19559
1.23324
1.28526
1.35727
1.4578
1.58864
1.74058
1.88838
1.97637
1.24816
1.23184
1.23411
1.25296
1.28691
1.33607
1.40523
1.50352
1.6347
1.79137
1.95053
2.06925
1.28986
1.27469
1.27547
1.29286
1.32585
1.3747
1.44373
1.54208
1.67425
1.8339
1.99866
2.13178
1.98764
1.99823
1.71242
1.13354
0.358531
0.0447492
0.00163183
0.000291383
1.89829
1.88609
1.57661
0.977789
0.214085
0.0124196
0.0001655
0.00234038
1.75947
1.6913
1.32882
0.697629
0.095392
0.00230454
0.000509706
0.00448829
1.63164
1.45043
1.00683
0.38727
0.0291871
0.000471498
0.00368818
0.00449896
1.54827
1.24078
0.640573
0.129733
0.00483247
0.000744995
0.00455921
0.00450538
1.5346
1.16829
0.373129
0.026222
0.000755549
0.0040844
0.00453281
0.00450572
1.58521
1.21676
0.440579
0.0392743
0.000906796
0.00275769
0.00454318
0.00450688
1.69206
1.38028
0.775541
0.178138
0.00782868
0.000416062
0.00448621
0.00450287
1.84044
1.61333
1.1449
0.468126
0.0395734
0.000584173
0.00281342
0.00449935
1.98594
1.83687
1.45831
0.795405
0.121664
0.00302994
0.000310781
0.00449238
2.10175
2.0106
1.69361
1.08532
0.261782
0.0157983
0.000207349
0.0020183
2.17671
2.10872
1.81889
1.24159
0.411665
0.0508649
0.00201939
0.000291055
)
;

boundaryField
{
    walls
    {
        type            zeroGradient;
    }
    inlet
    {
        type            fixedValue;
        value           uniform 0;
    }
    outlet
    {
        type            inletOutlet;
        inletValue      uniform 0;
        value           nonuniform List<scalar> 
20
(
0.421203
0.411565
0.400281
0.388351
0.377268
0.369077
0.367244
0.375369
0.407134
0.421541
0.441661
0.502895
0.606649
0.731753
0.861547
0.984322
1.09285
1.18231
1.24816
1.28986
)
;
    }
}


// ************************************************************************* //
