/*--------------------------------*- C++ -*----------------------------------*\
  =========                 |
  \\      /  F ield         | OpenFOAM: The Open Source CFD Toolbox
   \\    /   O peration     | Website:  https://openfoam.org
    \\  /    A nd           | Version:  8
     \\/     M anipulation  |
\*---------------------------------------------------------------------------*/
FoamFile
{
    version     2.0;
    format      ascii;
    class       volScalarField;
    location    "50";
    object      p;
}
// * * * * * * * * * * * * * * * * * * * * * * * * * * * * * * * * * * * * * //

dimensions      [0 2 -2 0 0 0 0];

internalField   nonuniform List<scalar> 
336
(
708.645
1838.2
3090.25
4265.57
5587.54
7023.52
8914.55
10894.9
13295.9
14309.9
15619.7
10606.7
702.333
1825.41
3065.8
4215.74
5521.16
6961.26
8894.81
10905.8
13309
14278.9
15543.7
10579.5
696.862
1813.03
3042.45
4170.29
5462.66
6907.13
8875.17
10911.5
13317.4
14242.3
15464.5
10457
692.097
1800.45
3018.58
4126.99
5411.11
6861.59
8857.02
10913.6
13316.2
14197.4
15370
10205.9
686.892
1786.85
2992.26
4083.79
5362.23
6821.55
8838.42
10907.9
13296
14129.3
15258.6
9797.16
680.983
1770.62
2962.75
4040.02
5316.51
6784.05
8814.28
10884.8
13245.4
14028.6
15136.3
9137.25
672.983
1750.86
2929.01
3996.09
5271.82
6744.54
8777.29
10837.8
13158.9
13902.7
15012.5
8132.94
661.194
1726.91
2891.21
3954.06
5232.47
6707.52
8726.6
10761.8
13018.6
13756.2
14846.1
7496.5
633.317
1680.35
2821.88
3895.18
5185.2
6668.15
8625.83
10582.2
12667.7
13451.4
14392.4
9035.72
602.551
1622.85
2739.11
3831.23
5128.22
6591.7
8442.53
10272.4
12180.3
12989.2
13955.8
9781.11
577.249
1574.78
2670.18
3776.4
5068.84
6494.57
8228.34
9932.78
11703.4
12569.7
13647.3
10856.5
542.359
1566.25
2641.92
3741.83
5024.2
6402.41
8024
9613.09
11278.8
12259.1
13468.1
12072
503.741
1589.73
2637.91
3745.78
5013.66
6342.64
7861.77
9341.44
10908.1
12023.8
13477.6
13286.9
478.712
1599.9
2655.67
3777.68
5019.45
6318.41
7754.66
9152.41
10643.1
11850.4
13535.8
14229
464.338
1609.26
2683.67
3814.93
5041.56
6320.44
7697.49
9036.7
10473.8
11758.3
13584.9
14896.8
453.433
1616.05
2709.45
3850.6
5068.69
6336.92
7677.36
8982.03
10383.6
11722
13635.7
15347.1
446.414
1618.33
2725.24
3876.72
5091.47
6356.38
7679.26
8969.88
10351.7
11721.6
13657.8
15592.8
440.72
1613.4
2729.3
3889.63
5105.05
6372.06
7691.31
8982.65
10356.4
11739.6
13656
15690.4
430.28
1596.83
2720.86
3888.56
5108.2
6381.8
7708.24
9010.37
10384.4
11765.8
13640.5
15684.6
411.462
1571.72
2704.4
3881.15
5110.07
6396.11
7740.94
9064.29
10453
11828.5
13667.4
15654.3
14126.2
21702.1
27041.3
32562.2
39799
42694.4
43012.7
42926.1
14442.5
21836.6
27717.9
33665.3
40052.8
42773.5
42922.9
42892
15309.2
22233.1
28357.8
34284.5
39891.1
42446.3
42705.6
42834.4
16451.9
22943.8
29063.1
34809.7
39735
42133.7
42611.8
42765.6
17605.5
23841.4
29793.1
35258.2
39698.8
41962.3
42554.3
42726
18559.2
24591.4
30228.2
35602.5
39697.7
41893.4
42522.4
42716
19197.8
24841.3
30296.1
35611.7
39715.4
41925.9
42537.9
42726.3
19505.2
24642.8
30039.5
35350.8
39759.1
42048.8
42599.3
42759.9
19580.6
24333.1
29597.9
35002.1
39821.1
42291.1
42676.7
42824.2
19537.2
24032.4
29084.3
34532.9
40008.5
42631
42807.3
42913.8
19437.4
23742.3
28481.8
33925.5
40196.2
42945.7
43061.7
42985.8
19343
23454.9
27768.8
32776.9
39945.5
42844
43157.8
43031.2
)
;

boundaryField
{
    walls
    {
        type            zeroGradient;
    }
    inlet
    {
        type            zeroGradient;
    }
    outlet
    {
        type            fixedValue;
        value           uniform 0;
    }
}


// ************************************************************************* //
