/*--------------------------------*- C++ -*----------------------------------*\
  =========                 |
  \\      /  F ield         | OpenFOAM: The Open Source CFD Toolbox
   \\    /   O peration     | Website:  https://openfoam.org
    \\  /    A nd           | Version:  8
     \\/     M anipulation  |
\*---------------------------------------------------------------------------*/
FoamFile
{
    version     2.0;
    format      ascii;
    class       surfaceScalarField;
    location    "50";
    object      phi;
}
// * * * * * * * * * * * * * * * * * * * * * * * * * * * * * * * * * * * * * //

dimensions      [0 3 -1 0 0 0 0];

internalField   nonuniform List<scalar> 
632
(
-0.0209628
-0.00051106
-0.020545
-0.000425439
-0.0199353
-0.000598539
-0.0190362
-0.000903982
-0.0180186
-0.00102019
-0.0171255
-0.000909878
-0.0165855
-0.000542056
-0.0157734
-0.000837466
-0.0136587
-0.00211193
-0.00767806
-0.00596955
0.0023651
-0.0100512
0.00240026
-0.0598394
-0.00169985
-0.0586146
-0.00168591
-0.0569799
-0.00221539
-0.0544598
-0.0034527
-0.051625
-0.0038363
-0.0489189
-0.00364255
-0.0472007
-0.00225304
-0.0446008
-0.00348893
-0.0393301
-0.00740787
-0.0237955
-0.0215508
-0.000964864
-0.0329909
0.00132039
-0.096417
-0.0034706
-0.0944057
-0.00371775
-0.0918177
-0.00478323
-0.0878056
-0.00747552
-0.0833992
-0.0082471
-0.0790876
-0.00798257
-0.0762905
-0.00504189
-0.0721382
-0.00767523
-0.0644463
-0.0150787
-0.0420029
-0.0439802
-0.0108133
-0.0641682
-0.00944742
-0.1311
-0.00574371
-0.12833
-0.00653543
-0.124827
-0.00825313
-0.119504
-0.012841
-0.113894
-0.0138314
-0.108455
-0.0134606
-0.104899
-0.00858931
-0.0995795
-0.0130638
-0.0898465
-0.0248382
-0.0626845
-0.0712034
-0.0258225
-0.101109
-0.0354026
-0.164203
-0.00854856
-0.160696
-0.0100673
-0.156375
-0.0125562
-0.150024
-0.0191934
-0.143674
-0.0201995
-0.137704
-0.0194642
-0.133797
-0.0124836
-0.12756
-0.0193251
-0.115879
-0.0364866
-0.0854461
-0.101608
-0.0450093
-0.14154
-0.0803683
-0.195935
-0.0117924
-0.191721
-0.0143273
-0.186762
-0.0174772
-0.179822
-0.0261682
-0.173262
-0.0267426
-0.167309
-0.0254603
-0.163312
-0.0164731
-0.156142
-0.0265622
-0.142432
-0.050207
-0.109821
-0.134253
-0.067648
-0.183738
-0.148057
-0.226334
-0.0154885
-0.221483
-0.0192163
-0.216158
-0.0227809
-0.209159
-0.0331669
-0.202913
-0.0330123
-0.197316
-0.0311004
-0.193171
-0.0206054
-0.184827
-0.0349285
-0.169079
-0.065931
-0.135404
-0.167894
-0.0934437
-0.225725
-0.241464
-0.255196
-0.019536
-0.24988
-0.0245566
-0.244493
-0.0281377
-0.237938
-0.0397351
-0.232365
-0.0385849
-0.227233
-0.0362684
-0.222584
-0.0252542
-0.212869
-0.0446859
-0.195221
-0.083576
-0.162019
-0.201089
-0.122122
-0.265617
-0.363563
-0.810432
-0.0325077
-0.795442
-0.0395881
-0.781829
-0.0417381
-0.768152
-0.0534074
-0.756573
-0.0502027
-0.744854
-0.0480352
-0.727591
-0.0425181
-0.695652
-0.0766327
-0.64036
-0.138835
-0.565308
-0.276079
-0.46712
-0.363823
-0.475746
-0.354869
-0.947337
-0.0443154
-0.933152
-0.0537906
-0.921962
-0.0528931
-0.911221
-0.064154
-0.900198
-0.0612451
-0.885884
-0.0623984
-0.863086
-0.0653216
-0.829881
-0.109876
-0.783199
-0.1855
-0.733729
-0.325526
-0.677127
-0.420415
-0.519575
-0.63326
-1.03323
-0.0514168
-1.02291
-0.064162
-1.01299
-0.0627998
-1.00318
-0.0739659
-0.991446
-0.0730123
-0.976541
-0.0773453
-0.955443
-0.0864171
-0.930789
-0.134529
-0.903264
-0.212991
-0.884037
-0.344685
-0.865531
-0.438918
-0.517351
-0.867669
-1.05161
-0.0525692
-1.04873
-0.0670665
-1.04326
-0.068242
-1.03644
-0.080786
-1.02743
-0.0820424
-1.01654
-0.0882806
-1.00325
-0.0997171
-0.99272
-0.145092
-0.987843
-0.217858
-0.998212
-0.334309
-1.01391
-0.423229
-0.481235
-1.05002
-1.00422
-0.0476658
-1.00965
-0.0616806
-1.011
-0.0668843
-1.01165
-0.0801452
-1.01084
-0.0828776
-1.00855
-0.0906192
-1.00627
-0.101988
-1.00976
-0.141619
-1.02299
-0.204602
-1.05537
-0.301873
-1.10154
-0.377058
-0.417215
-1.16547
-0.910055
-0.0389687
-0.920756
-0.0509958
-0.929408
-0.0582077
-0.938576
-0.0709773
-0.946395
-0.0750811
-0.954248
-0.0828003
-0.963489
-0.0927549
-0.980257
-0.124876
-1.00909
-0.175758
-1.05778
-0.253184
-1.12308
-0.311791
-0.337359
-1.20295
-0.790854
-0.0295862
-0.803447
-0.0384336
-0.816391
-0.0452495
-0.831364
-0.056007
-0.845915
-0.0605587
-0.861634
-0.0671187
-0.879525
-0.0748666
-0.905439
-0.0989762
-0.944021
-0.13716
-1.00208
-0.195085
-1.0766
-0.237285
-0.252593
-1.16131
-0.660737
-0.02097
-0.672897
-0.0262863
-0.686912
-0.0312211
-0.703819
-0.0390984
-0.721408
-0.0429924
-0.740834
-0.0477153
-0.762806
-0.0529016
-0.792469
-0.0693243
-0.834166
-0.0954509
-0.893665
-0.135577
-0.96738
-0.163584
-0.173626
-1.04636
-0.525659
-0.0134729
-0.53619
-0.0157758
-0.548852
-0.018546
-0.564566
-0.0233767
-0.581625
-0.0259632
-0.600641
-0.0287244
-0.622074
-0.0314714
-0.650223
-0.0411756
-0.688885
-0.0567671
-0.742834
-0.0815846
-0.808178
-0.0982478
-0.105902
-0.87588
-0.3865
-0.0072077
-0.39479
-0.00750079
-0.404691
-0.00863221
-0.417169
-0.0108927
-0.43104
-0.0121203
-0.446492
-0.0132944
-0.463735
-0.0142319
-0.486188
-0.0187161
-0.51693
-0.0259906
-0.559967
-0.0385031
-0.611693
-0.0465132
-0.0521866
-0.665402
-0.241166
-0.00243608
-0.246631
-0.00204488
-0.25298
-0.00227359
-0.261011
-0.00285988
-0.269997
-0.00315581
-0.279901
-0.00340785
-0.29067
-0.00346555
-0.304746
-0.004632
-0.324212
-0.00649555
-0.352382
-0.010299
-0.386407
-0.0124798
-0.0152574
-0.423339
-0.0857716
-0.0878158
-0.0900888
-0.0929506
-0.0961081
-0.0995163
-0.102981
-0.107611
-0.114103
-0.124401
-0.136881
-0.152144
-0.211015
-0.143953
-0.193693
-0.0174346
-0.202849
0.00916251
-0.286681
0.0838359
-0.526755
0.240152
-0.741539
0.214736
-0.796363
0.0548677
0.00366627
-0.549347
-0.22791
-0.520325
-0.0464705
-0.535274
0.0241244
-0.641773
0.190351
-0.766885
0.364864
-0.797243
0.2447
-0.798962
0.0569511
0.00513999
-0.825577
-0.270092
-0.795352
-0.0767863
-0.806614
0.0353877
-0.866731
0.250438
-0.865646
0.363654
-0.820563
0.199475
-0.800717
0.0372764
0.00456392
-1.04284
-0.277372
-1.01895
-0.100756
-1.01192
0.0284478
-1.00322
0.241753
-0.902199
0.262152
-0.816019
0.112955
-0.801733
0.0234255
0.00321789
-1.18965
-0.253254
-1.18166
-0.108829
-1.14897
-0.00419041
-1.03899
0.131864
-0.893051
0.116044
-0.818223
0.0375887
-0.802408
0.00768168
0.00109926
-1.24847
-0.20786
-1.25633
-0.101136
-1.19071
-0.0696339
-1.01598
-0.0428649
-0.871225
-0.0291645
-0.819757
-0.0141124
-0.80393
-0.00787623
-0.00267786
-1.21367
-0.15558
-1.23035
-0.0845927
-1.18463
-0.11529
-1.02191
-0.205465
-0.873697
-0.1773
-0.818669
-0.0694851
-0.803053
-0.02354
-0.00551871
-1.09497
-0.107087
-1.11632
-0.0633964
-1.11464
-0.116924
-1.03535
-0.284726
-0.897442
-0.315305
-0.816395
-0.150535
-0.800831
-0.038934
-0.00621896
-0.917728
-0.0653435
-0.939834
-0.0414531
-0.964801
-0.0919155
-0.983712
-0.265733
-0.898544
-0.400176
-0.8148
-0.234298
-0.801141
-0.0525833
-0.00752352
-0.698944
-0.0319104
-0.719093
-0.0214311
-0.757503
-0.0534574
-0.832363
-0.190776
-0.85472
-0.37763
-0.817739
-0.271224
-0.79963
-0.0706862
-0.00735685
-0.446289
-0.00904523
-0.461347
-0.00646245
-0.496581
-0.0181933
-0.608572
-0.078712
-0.746226
-0.239844
-0.791143
-0.226223
-0.798145
-0.0636948
-0.00567861
-0.161196
-0.167657
-0.185846
-0.26455
-0.504389
-0.730611
-0.794321
)
;

boundaryField
{
    walls
    {
        type            calculated;
        value           uniform 0;
    }
    inlet
    {
        type            calculated;
        value           nonuniform List<scalar> 
12
(
-0.8
-0.8
-0.8
-0.8
-0.8
-0.8
-0.8
-0.8
-0.8
-0.8
-0.8
-0.8
)
;
    }
    outlet
    {
        type            calculated;
        value           nonuniform List<scalar> 
20
(
0.0214798
0.0610529
0.098198
0.133411
0.167012
0.199215
0.230031
0.259263
0.823384
0.959151
1.04031
1.05277
0.999311
0.901356
0.781466
0.652113
0.518154
0.380224
0.236386
0.0833345
)
;
    }
}


// ************************************************************************* //
