/*--------------------------------*- C++ -*----------------------------------*\
  =========                 |
  \\      /  F ield         | OpenFOAM: The Open Source CFD Toolbox
   \\    /   O peration     | Website:  https://openfoam.org
    \\  /    A nd           | Version:  8
     \\/     M anipulation  |
\*---------------------------------------------------------------------------*/
FoamFile
{
    version     2.0;
    format      ascii;
    class       volVectorField;
    location    "50";
    object      U;
}
// * * * * * * * * * * * * * * * * * * * * * * * * * * * * * * * * * * * * * //

dimensions      [0 1 -1 0 0 0 0];

internalField   nonuniform List<vector> 
336
(
(-10.6779 -0.0119935 -5.7267e-17)
(-10.3009 -0.0147839 -7.59256e-17)
(-10.1798 -0.0311733 -5.47583e-17)
(-9.74284 -0.0512461 -1.16271e-16)
(-9.2487 -0.0543317 -7.59008e-17)
(-8.76261 -0.0358513 -7.16121e-17)
(-8.29862 -0.00399466 -4.06447e-17)
(-8.283 0.0217296 -1.12308e-16)
(-7.29573 0.00492828 -5.11431e-17)
(-6.50153 -0.0320035 -1.63399e-16)
(-0.392101 -0.149881 1.08433e-17)
(1.45662 0.136 -4.04426e-17)
(-30.4343 -0.0635516 -1.69477e-16)
(-29.4279 -0.0598814 -2.2728e-16)
(-29.0888 -0.0822838 -1.5496e-16)
(-27.8754 -0.120763 -3.48736e-16)
(-26.5171 -0.129977 -2.23797e-16)
(-25.0971 -0.115106 -2.10723e-16)
(-23.7196 -0.0676174 -1.13491e-16)
(-23.4735 -0.110791 -3.43277e-16)
(-20.8317 -0.270514 -1.4797e-16)
(-18.7177 -0.796693 -5.12295e-16)
(-3.95382 -1.27093 4.88842e-17)
(1.13017 0.222543 -1.15771e-16)
(-49.0062 -0.160066 -2.73989e-16)
(-47.4331 -0.166384 -3.78153e-16)
(-46.8734 -0.217863 -2.48287e-16)
(-44.9314 -0.333729 -5.80201e-16)
(-42.8067 -0.366902 -3.64308e-16)
(-40.5819 -0.348653 -3.43316e-16)
(-38.398 -0.217871 -1.66899e-16)
(-37.8837 -0.339499 -5.9431e-16)
(-33.9515 -0.701114 -2.27406e-16)
(-30.7278 -2.0622 -6.19855e-16)
(-10.2217 -3.07965 1.17387e-16)
(-2.32795 -0.0930978 -1.80653e-16)
(-66.6112 -0.29345 -3.81624e-16)
(-64.5111 -0.325796 -5.25916e-16)
(-63.7185 -0.417296 -3.35761e-16)
(-61.0983 -0.645558 -7.27347e-16)
(-58.3377 -0.702991 -4.92774e-16)
(-55.546 -0.680913 -4.65818e-16)
(-52.7975 -0.433347 -2.83696e-16)
(-52.0913 -0.660537 -8.96388e-16)
(-47.1831 -1.27771 -2.78536e-16)
(-42.9028 -3.71606 -7.6181e-16)
(-18.8191 -5.34644 -3.92113e-17)
(-8.58933 -1.21258 -2.29042e-16)
(-83.4108 -0.46062 -4.7863e-16)
(-80.8149 -0.53447 -6.20109e-16)
(-79.7819 -0.673629 -4.72334e-16)
(-76.584 -1.03369 -8.55011e-16)
(-73.3726 -1.10193 -6.04843e-16)
(-70.2902 -1.06631 -5.71771e-16)
(-67.2994 -0.684762 -3.51387e-16)
(-66.4856 -1.04569 -1.01952e-15)
(-60.774 -1.97952 -5.32994e-16)
(-55.345 -5.62006 -9.20269e-16)
(-29.2233 -7.89878 -1.30713e-16)
(-17.2353 -3.44198 -2.56141e-16)
(-99.5121 -0.659195 -5.3097e-16)
(-96.4462 -0.789938 -6.48334e-16)
(-95.1774 -0.97766 -5.45936e-16)
(-91.5762 -1.47494 -9.56247e-16)
(-88.1782 -1.53157 -6.96338e-16)
(-85.0712 -1.46706 -6.57279e-16)
(-82.1224 -0.946762 -4.3432e-16)
(-81.1752 -1.48473 -1.11946e-15)
(-74.6795 -2.80464 -7.54779e-16)
(-67.9882 -7.69076 -1.04535e-15)
(-41.0104 -10.6108 -1.70576e-16)
(-28.0025 -7.11009 -2.6212e-16)
(-114.922 -0.886071 -5.3648e-16)
(-111.434 -1.09054 -6.41534e-16)
(-109.955 -1.31555 -5.32881e-16)
(-106.194 -1.9425 -9.49511e-16)
(-102.899 -1.96325 -7.62973e-16)
(-100.002 -1.86169 -7.15848e-16)
(-97.1996 -1.21588 -6.0666e-16)
(-95.9551 -1.99077 -9.92234e-16)
(-88.6079 -3.7551 -9.4863e-16)
(-80.6931 -9.86019 -1.09429e-15)
(-53.9076 -13.3548 -1.74347e-16)
(-40.8814 -12.7646 -2.507e-16)
(-129.52 -1.14552 -4.96401e-16)
(-125.701 -1.43164 -5.91945e-16)
(-124.067 -1.6703 -4.94443e-16)
(-120.415 -2.3974 -8.94593e-16)
(-117.441 -2.35852 -7.98075e-16)
(-114.908 -2.22031 -7.3718e-16)
(-112.183 -1.49929 -6.91566e-16)
(-110.376 -2.58224 -8.58225e-16)
(-102.193 -4.86312 -1.11904e-15)
(-93.2801 -12.0558 -1.12363e-15)
(-67.7576 -16.0686 -1.54614e-16)
(-56.0221 -19.5519 -2.27235e-16)
(-154.076 -1.69576 -3.58337e-16)
(-149.879 -2.10529 -4.51132e-16)
(-148.105 -2.31278 -2.92945e-16)
(-145.027 -3.10716 -6.68973e-16)
(-142.779 -2.91964 -8.09645e-16)
(-140.863 -2.71091 -7.18298e-16)
(-138.024 -2.07211 -7.70468e-16)
(-134.704 -3.86335 -9.09089e-16)
(-125.355 -7.28675 -1.05037e-15)
(-115.393 -15.9773 -1.32764e-15)
(-94.132 -21.094 -1.04099e-16)
(-86.5648 -30.2353 -1.80886e-16)
(-179.552 -2.54843 -1.84064e-16)
(-175.709 -3.0505 -3.14049e-16)
(-173.94 -3.11371 -1.69731e-16)
(-171.711 -3.84074 -5.0155e-16)
(-169.73 -3.59652 -7.45728e-16)
(-167.748 -3.56297 -6.27951e-16)
(-164.054 -3.50934 -7.47239e-16)
(-159.474 -6.19743 -8.51414e-16)
(-151.05 -10.8647 -8.87163e-16)
(-143.139 -20.0813 -9.04827e-16)
(-130.103 -26.2099 -8.01774e-17)
(-128.188 -33.1077 -1.57306e-16)
(-194.8 -3.17522 -1.25814e-16)
(-192.635 -3.96089 -2.47041e-16)
(-190.732 -3.81919 -1.27073e-16)
(-189.027 -4.52204 -3.54669e-16)
(-186.902 -4.36788 -5.79766e-16)
(-184.79 -4.59699 -4.70361e-16)
(-181.081 -5.0671 -6.17278e-16)
(-177.096 -8.20721 -7.78981e-16)
(-171.416 -13.3862 -7.57058e-16)
(-167.667 -22.3711 -1.0091e-15)
(-162.471 -28.5468 -4.46865e-17)
(-165.36 -34.2508 -1.37942e-16)
(-197.252 -3.53018 -1.28084e-16)
(-196.974 -4.38073 -2.26106e-16)
(-196.116 -4.36409 -1.03313e-16)
(-194.979 -5.14007 -3.07642e-16)
(-193.406 -5.13024 -3.19526e-16)
(-191.786 -5.50927 -2.4463e-16)
(-189.136 -6.24147 -3.69791e-16)
(-186.983 -9.37153 -7.15264e-16)
(-184.868 -14.3903 -5.8531e-16)
(-185.803 -22.4704 -9.06426e-16)
(-187.623 -28.6452 1.86872e-19)
(-194.858 -32.8711 -9.48543e-17)
(-187.321 -3.3653 -1.36593e-16)
(-189.013 -4.32165 -2.6048e-16)
(-189.508 -4.54081 -2.9177e-16)
(-189.459 -5.35659 -3.94931e-16)
(-189.621 -5.53881 -3.92921e-18)
(-189.346 -6.0083 5.5835e-17)
(-188.608 -6.78834 1.19238e-16)
(-188.654 -9.59618 -6.5595e-16)
(-189.673 -14.0791 -3.73483e-16)
(-194.106 -21.0691 -4.2359e-16)
(-200.951 -26.3564 -4.79529e-17)
(-213.687 -29.5079 1.78696e-17)
(-169.009 -2.84934 -5.01138e-17)
(-171.956 -3.71918 -2.14888e-16)
(-173.256 -4.1503 -1.50084e-16)
(-175.096 -5.05814 -9.40457e-17)
(-176.635 -5.29027 1.75621e-16)
(-178.148 -5.81661 3.27704e-16)
(-179.479 -6.53341 3.22964e-16)
(-181.743 -8.89199 -5.50531e-16)
(-185.575 -12.6247 -2.60449e-16)
(-192.966 -18.3071 -8.85046e-16)
(-203.104 -22.7363 -1.64334e-16)
(-219.179 -24.8294 -5.83926e-16)
(-146.562 -2.23282 8.26119e-17)
(-149.687 -2.9141 6.92662e-17)
(-151.531 -3.39519 1.74345e-17)
(-154.453 -4.20071 1.17014e-16)
(-157.093 -4.50705 2.81714e-16)
(-159.999 -4.98689 6.59793e-16)
(-162.922 -5.57678 3.45492e-16)
(-166.818 -7.41304 -3.89616e-16)
(-172.492 -10.3197 1.39522e-16)
(-181.615 -14.7098 -7.55549e-16)
(-193.676 -17.963 -2.61439e-16)
(-210.889 -19.2144 -4.69604e-16)
(-122.327 -1.63385 1.74213e-16)
(-125.125 -2.08152 1.60139e-16)
(-127.133 -2.47283 1.89617e-16)
(-130.309 -3.09935 3.14119e-16)
(-133.425 -3.39635 3.08209e-16)
(-136.969 -3.76847 6.07647e-16)
(-140.668 -4.19318 2.53432e-16)
(-145.304 -5.50527 -2.91887e-16)
(-151.678 -7.5903 -4.0452e-17)
(-161.216 -10.7604 -7.0329e-16)
(-173.512 -13.0347 -3.58679e-16)
(-189.857 -13.8174 -5.81698e-16)
(-97.2189 -1.10417 1.86887e-16)
(-99.5828 -1.3315 2.36203e-16)
(-101.405 -1.57447 1.19739e-16)
(-104.27 -1.9916 2.02552e-16)
(-107.259 -2.21361 3.23917e-16)
(-110.712 -2.45158 8.25282e-16)
(-114.363 -2.70284 5.52186e-16)
(-118.835 -3.53548 -2.07547e-16)
(-124.83 -4.87223 9.11764e-17)
(-133.57 -6.95611 -7.3507e-16)
(-144.676 -8.40857 -4.25818e-16)
(-158.833 -8.97835 -7.96074e-16)
(-71.3611 -0.650796 1.60188e-16)
(-73.2627 -0.712775 2.38153e-16)
(-74.6943 -0.824349 7.18817e-17)
(-76.9218 -1.04643 1.27903e-16)
(-79.3407 -1.1691 2.5349e-16)
(-82.1557 -1.28345 5.71855e-16)
(-85.1177 -1.38832 6.21992e-16)
(-88.7009 -1.82528 -1.45099e-16)
(-93.4666 -2.53941 -6.21071e-17)
(-100.442 -3.71721 -7.96014e-16)
(-109.293 -4.51803 -4.16124e-16)
(-120.44 -4.97137 -1.00851e-15)
(-44.3969 -0.288473 1.05606e-16)
(-45.7335 -0.265034 1.40997e-16)
(-46.6571 -0.292156 4.06602e-17)
(-48.0711 -0.370143 6.94084e-17)
(-49.6385 -0.408862 1.58601e-16)
(-51.4647 -0.437701 3.96271e-16)
(-53.3388 -0.451031 3.85358e-16)
(-55.5786 -0.606436 -6.8859e-17)
(-58.5609 -0.868537 -6.57866e-18)
(-63.0761 -1.35836 -4.43154e-16)
(-68.8656 -1.67722 -2.78963e-16)
(-76.3447 -1.99401 -5.63082e-16)
(-15.6853 -0.0568363 3.83807e-17)
(-16.2648 -0.0256044 7.75256e-17)
(-16.5953 -0.0123054 1.41636e-17)
(-17.094 0.000288917 2.07622e-17)
(-17.6474 0.0205993 5.68965e-17)
(-18.2923 0.0443375 2.53484e-16)
(-18.9156 0.0812134 2.88195e-16)
(-19.6445 0.100383 -8.71633e-18)
(-20.6169 0.11633 1.40705e-16)
(-22.2178 0.0658019 -1.34674e-16)
(-24.3102 0.0410269 -9.5903e-17)
(-27.2424 -0.119585 -1.88883e-16)
(-41.1112 -5.62455 -6.63653e-17)
(-37.3769 -0.183875 -1.39186e-16)
(-35.6355 0.874865 -3.82884e-16)
(-40.3564 3.49322 -1.78395e-15)
(-64.3191 10.6613 -1.13695e-15)
(-135.144 12.4792 1.77932e-15)
(-149.8 3.61197 4.1484e-16)
(-149.524 0.185086 -7.61399e-17)
(-105.853 -11.4595 -1.85229e-16)
(-99.2437 -1.72971 -4.18386e-16)
(-96.1824 1.08724 -1.13774e-15)
(-104.151 7.95426 -3.78967e-15)
(-134.553 18.4866 -7.87279e-15)
(-155.078 13.223 -1.58036e-14)
(-150.093 2.85455 -1.00245e-14)
(-149.567 0.536641 -4.3059e-15)
(-157.859 -14.9789 -2.60385e-16)
(-150.988 -3.48691 -5.69816e-16)
(-147.354 1.95376 -1.75293e-15)
(-154.693 13.4805 -5.7268e-15)
(-167.931 23.0809 -5.27937e-15)
(-161.483 12.6013 -2.90886e-15)
(-150.066 4.17246 -5.78079e-16)
(-150.372 0.247887 9.28883e-17)
(-197.718 -16.415 -2.56964e-16)
(-192.732 -5.08484 -5.06006e-16)
(-189.39 2.33526 -1.56217e-15)
(-189.56 15.1832 -5.37162e-15)
(-185.203 19.3071 -1.77565e-15)
(-157.316 9.50454 -7.58763e-16)
(-151.22 2.05206 1.23435e-16)
(-150.116 0.569519 -5.48559e-18)
(-222.932 -15.888 -1.76293e-16)
(-222.579 -6.08416 -1.8383e-16)
(-220.632 1.39418 6.20147e-16)
(-209.491 12.873 -1.003e-15)
(-180.07 11.007 1.09658e-14)
(-157.483 3.92603 2.29729e-15)
(-151.875 1.00688 6.3454e-15)
(-149.923 0.376557 7.25287e-15)
(-231.893 -13.7604 -9.33404e-17)
(-235.685 -6.27113 -3.40932e-16)
(-235.769 -1.91421 1.26804e-15)
(-209.431 3.61839 3.81376e-15)
(-172.046 1.1801 -8.45415e-16)
(-158.157 0.834451 2.50274e-16)
(-151.773 0.147933 8.43728e-18)
(-150.309 -0.039568 -4.05978e-17)
(-224.728 -10.7815 -6.24207e-17)
(-229.998 -5.91693 5.13609e-16)
(-231.587 -6.13092 -2.5101e-16)
(-211.416 -8.88974 -3.49539e-15)
(-172.348 -4.76117 -6.19887e-15)
(-158.233 -2.2278 -5.58636e-15)
(-151.557 -1.06863 -7.28502e-15)
(-150.169 -0.289235 -6.48718e-15)
(-202.717 -7.78608 -3.17774e-16)
(-207.733 -4.62989 9.05368e-17)
(-210.763 -7.38886 4.54331e-16)
(-206.538 -15.9113 2.39076e-15)
(-181.704 -14.7415 -6.11895e-16)
(-157.057 -6.18424 8.07501e-16)
(-151.755 -1.77575 -2.81106e-16)
(-149.61 -0.599577 8.42689e-17)
(-169.806 -5.07782 -7.69674e-16)
(-174.302 -3.19924 -2.58072e-16)
(-177.938 -6.47942 9.99891e-17)
(-183.443 -17.1927 5.7345e-17)
(-183.698 -22.0999 9.1712e-18)
(-157.64 -11.0658 -8.41187e-17)
(-150.707 -3.30668 2.23123e-17)
(-150.296 -0.695332 -5.94476e-18)
(-129.211 -2.81126 -6.24527e-16)
(-132.899 -1.9017 -8.29408e-16)
(-136.598 -4.43219 -1.39328e-16)
(-147.175 -13.804 -6.71486e-16)
(-162.537 -23.8962 6.16675e-17)
(-161.731 -14.7621 -1.25991e-17)
(-149.487 -4.91893 1.4095e-18)
(-150.374 -0.632104 -4.68984e-19)
(-82.4198 -1.12742 -4.93717e-16)
(-84.9652 -0.852735 -3.88047e-16)
(-88.0179 -2.19822 -2.29858e-16)
(-97.9345 -7.75957 -1.5035e-15)
(-128.053 -18.5591 1.96838e-16)
(-153.34 -14.3177 4.28333e-18)
(-150.161 -3.43634 -5.05014e-19)
(-149.343 -0.757563 6.96145e-20)
(-29.728 -0.10479 -3.77151e-16)
(-30.7456 -0.28471 -1.33883e-16)
(-32.1822 -0.8881 -8.76385e-17)
(-37.549 -3.13492 -4.30325e-16)
(-58.7124 -10.1078 3.5251e-17)
(-132.01 -13.1512 -4.59697e-18)
(-149.365 -4.01573 3.01169e-19)
(-149.44 -0.204354 -2.94898e-20)
)
;

boundaryField
{
    walls
    {
        type            noSlip;
    }
    inlet
    {
        type            fixedValue;
        value           uniform (-150 0 0);
    }
    outlet
    {
        type            pressureInletOutletVelocity;
        value           nonuniform List<vector> 
20
(
(-10.6779 -0.0119935 -5.7267e-17)
(-30.4343 -0.0635516 -1.69477e-16)
(-49.0062 -0.160066 -2.73989e-16)
(-66.6112 -0.29345 -3.81624e-16)
(-83.4108 -0.46062 -4.7863e-16)
(-99.5121 -0.659195 -5.3097e-16)
(-114.922 -0.886071 -5.3648e-16)
(-129.52 -1.14552 -4.96401e-16)
(-154.076 -1.69576 -3.58337e-16)
(-179.552 -2.54843 -1.84064e-16)
(-194.8 -3.17522 -1.25814e-16)
(-197.252 -3.53018 -1.28084e-16)
(-187.321 -3.3653 -1.36593e-16)
(-169.009 -2.84934 -5.01138e-17)
(-146.562 -2.23282 8.26119e-17)
(-122.327 -1.63385 1.74213e-16)
(-97.2189 -1.10417 1.86887e-16)
(-71.3611 -0.650796 1.60188e-16)
(-44.3969 -0.288473 1.05606e-16)
(-15.6853 -0.0568363 3.83807e-17)
)
;
    }
}


// ************************************************************************* //
