/*--------------------------------*- C++ -*----------------------------------*\
  =========                 |
  \\      /  F ield         | OpenFOAM: The Open Source CFD Toolbox
   \\    /   O peration     | Website:  https://openfoam.org
    \\  /    A nd           | Version:  8
     \\/     M anipulation  |
\*---------------------------------------------------------------------------*/
FoamFile
{
    version     2.0;
    format      ascii;
    class       volScalarField;
    location    "2";
    object      p;
}
// * * * * * * * * * * * * * * * * * * * * * * * * * * * * * * * * * * * * * //

dimensions      [0 2 -2 0 0 0 0];

internalField   nonuniform List<scalar> 
336
(
0.619457
1.63996
2.70595
3.69055
4.59584
5.30583
5.68981
5.41618
4.44902
1.76155
-1.13001
-6.93615
0.613402
1.63145
2.69541
3.67443
4.57318
5.27307
5.64594
5.35749
4.38342
1.68195
-1.17389
-6.88778
0.608193
1.62334
2.68524
3.65914
4.5524
5.24418
5.6088
5.30937
4.33227
1.61463
-1.21264
-6.91151
0.603643
1.61586
2.67507
3.64427
4.53286
5.21852
5.57741
5.27201
4.29399
1.56484
-1.24662
-7.00806
0.598798
1.60772
2.66292
3.62675
4.51012
5.18979
5.54324
5.23503
4.25643
1.52064
-1.26559
-7.15282
0.593123
1.598
2.64752
3.60447
4.48128
5.15389
5.50101
5.19246
4.21241
1.47966
-1.24611
-7.36649
0.586144
1.58637
2.62823
3.5765
4.44505
5.1091
5.44809
5.14212
4.15563
1.45
-1.19953
-7.69937
0.576655
1.57244
2.60332
3.54096
4.39868
5.0518
5.37898
5.07946
4.07366
1.44868
-1.23264
-7.94983
0.553565
1.53809
2.5392
3.45095
4.27967
4.90394
5.20154
4.91717
3.87479
1.47179
-1.52724
-7.45678
0.517126
1.46195
2.40296
3.256
4.01954
4.57837
4.82609
4.55761
3.55803
1.41273
-1.79536
-6.56144
0.472907
1.35857
2.22222
2.99858
3.67554
4.15157
4.34345
4.09213
3.18662
1.26121
-1.82572
-5.29015
0.425963
1.23885
2.01459
2.70383
3.28322
3.67112
3.80744
3.57461
2.77323
1.05886
-1.62753
-3.91265
0.381496
1.11647
1.80192
2.40138
2.88263
3.18598
3.27041
3.0521
2.34433
0.852273
-1.30389
-2.6834
0.341396
1.00095
1.59992
2.11226
2.50076
2.72676
2.76275
2.55191
1.92848
0.679204
-0.93614
-1.67772
0.307708
0.899853
1.42086
1.85284
2.15712
2.31324
2.30184
2.08983
1.5466
0.554257
-0.570665
-0.877187
0.283758
0.820539
1.27664
1.63972
1.87158
1.96568
1.90664
1.68364
1.2139
0.470553
-0.241442
-0.250772
0.270976
0.767413
1.17587
1.48683
1.66265
1.70543
1.60109
1.35748
0.943494
0.40864
0.0158525
0.210676
0.266173
0.738371
1.11806
1.39644
1.53555
1.54157
1.39973
1.12918
0.741661
0.343878
0.163727
0.494528
0.264858
0.72662
1.09514
1.35636
1.47505
1.45835
1.28896
0.989432
0.596723
0.253173
0.177223
0.586742
0.265251
0.725888
1.08938
1.34511
1.45584
1.4238
1.23412
0.908444
0.49012
0.137597
0.0798184
0.518124
-7.20264
-1.32264
2.78603
7.07942
11.7349
18.3105
29.1333
44.7748
-5.85687
-1.13368
2.96776
7.31703
12.0203
18.6561
28.8358
41.3687
-4.31632
-0.56226
3.35214
7.66631
12.4868
19.2692
28.7476
38.6934
-2.85089
0.217465
3.89146
8.0588
12.9851
19.898
28.7839
36.9406
-1.6081
1.0112
4.44558
8.4129
13.3801
20.3547
28.8192
35.8582
-0.614622
1.72152
4.92254
8.69862
13.6383
20.606
28.8453
35.3414
0.165877
2.31584
5.30628
8.91103
13.7621
20.6662
28.8862
35.3603
0.773306
2.78625
5.59068
9.04145
13.7465
20.5336
28.9395
35.915
1.22332
3.12734
5.76776
9.07156
13.5771
20.1907
28.9765
37.0356
1.50879
3.33214
5.83476
8.99524
13.2693
19.6651
29.0023
38.8252
1.61633
3.39715
5.8055
8.84898
12.9279
19.132
29.137
41.5318
1.56536
3.33645
5.70125
8.68435
12.6845
18.8274
29.4584
44.9578
)
;

boundaryField
{
    walls
    {
        type            zeroGradient;
    }
    inlet
    {
        type            zeroGradient;
    }
    outlet
    {
        type            fixedValue;
        value           uniform 0;
    }
}


// ************************************************************************* //
