/*--------------------------------*- C++ -*----------------------------------*\
  =========                 |
  \\      /  F ield         | OpenFOAM: The Open Source CFD Toolbox
   \\    /   O peration     | Website:  https://openfoam.org
    \\  /    A nd           | Version:  8
     \\/     M anipulation  |
\*---------------------------------------------------------------------------*/
FoamFile
{
    version     2.0;
    format      ascii;
    class       surfaceScalarField;
    location    "2";
    object      phi;
}
// * * * * * * * * * * * * * * * * * * * * * * * * * * * * * * * * * * * * * //

dimensions      [0 3 -1 0 0 0 0];

internalField   nonuniform List<scalar> 
632
(
-0.00117734
-2.94243e-05
-0.00114798
-2.93635e-05
-0.00110764
-4.03321e-05
-0.00104644
-6.12036e-05
-0.000956398
-9.00419e-05
-0.000822096
-0.000134303
-0.00063241
-0.000189686
-0.000380152
-0.000252258
-6.62659e-05
-0.000313886
0.000250612
-0.000316878
0.000495987
-0.000245375
0.000495987
-0.00339571
-0.000101159
-0.00330796
-0.000117113
-0.00319561
-0.000152689
-0.00302444
-0.000232375
-0.00278018
-0.000334296
-0.00242301
-0.000491474
-0.00193465
-0.000678048
-0.00128359
-0.000903316
-0.000521258
-0.00107622
0.000334857
-0.00117299
0.000883443
-0.000793961
0.00137943
-0.00548083
-0.000207153
-0.00534037
-0.000257574
-0.00516548
-0.000327583
-0.00490071
-0.000497139
-0.00453145
-0.000703557
-0.00400102
-0.00102191
-0.00329138
-0.00138769
-0.00235133
-0.00184337
-0.00128352
-0.00214402
-5.32196e-06
-0.00245119
0.000778676
-0.00157796
0.00215811
-0.00744025
-0.000341562
-0.00725648
-0.000441338
-0.00703081
-0.00055326
-0.00669311
-0.000834835
-0.00623169
-0.00116497
-0.00558024
-0.00167336
-0.00472349
-0.00224444
-0.00360031
-0.00296654
-0.00234136
-0.00340297
-0.000788242
-0.00400431
0.000213435
-0.00257964
0.00237154
-0.00928441
-0.000497326
-0.00906882
-0.000656929
-0.00880706
-0.000815023
-0.00842045
-0.00122144
-0.00790225
-0.00168318
-0.00718199
-0.00239362
-0.0062482
-0.00317823
-0.00503636
-0.00417838
-0.0036838
-0.00475554
-0.00196995
-0.00571816
-0.000792625
-0.00375696
0.00157891
-0.0110239
-0.000666206
-0.0107898
-0.00089103
-0.0105088
-0.00109601
-0.0100993
-0.00163098
-0.00955997
-0.00222247
-0.00882037
-0.00313321
-0.00787266
-0.00412595
-0.00665299
-0.00539804
-0.00528826
-0.00612027
-0.00352923
-0.00747719
-0.00227937
-0.00500682
-0.000700456
-0.0126677
-0.000839159
-0.0124294
-0.00112938
-0.0121468
-0.00137864
-0.01174
-0.00203776
-0.0112128
-0.00274962
-0.0104975
-0.00384852
-0.00958922
-0.00503424
-0.00842722
-0.00656005
-0.00711759
-0.00742989
-0.00542175
-0.00917304
-0.00421698
-0.00621158
-0.00491744
-0.0142212
-0.0010085
-0.0139938
-0.00135679
-0.0137254
-0.00164701
-0.0133449
-0.00241825
-0.0128579
-0.00323667
-0.0122028
-0.00450362
-0.0113744
-0.00586261
-0.0103237
-0.00761077
-0.00911162
-0.00864196
-0.00759789
-0.0106868
-0.00645266
-0.00735682
-0.0113701
-0.0450773
-0.0014186
-0.0446092
-0.00182486
-0.0440143
-0.00224187
-0.0432349
-0.00319772
-0.0422333
-0.00423822
-0.0409208
-0.00581612
-0.0392346
-0.0075488
-0.0371955
-0.00964993
-0.0344742
-0.0113632
-0.0320336
-0.0131274
-0.0276614
-0.0117291
-0.0155041
-0.0235274
-0.0537846
-0.00162563
-0.0535954
-0.00201402
-0.0533323
-0.00250499
-0.0530129
-0.00351712
-0.0525832
-0.00466792
-0.0520247
-0.00637455
-0.0513097
-0.00826381
-0.0504658
-0.0104939
-0.0493947
-0.0124343
-0.0485852
-0.0139369
-0.0463183
-0.0139959
-0.0152907
-0.0465317
-0.0601743
-0.0016583
-0.0601844
-0.00200386
-0.0601581
-0.00253135
-0.0601438
-0.00353136
-0.0600876
-0.00472412
-0.0600213
-0.00644091
-0.059941
-0.00834411
-0.0598986
-0.0105362
-0.0598954
-0.0124376
-0.0599747
-0.0138576
-0.0595069
-0.0144638
-0.0136441
-0.0611535
-0.0638939
-0.0015951
-0.0639849
-0.00191277
-0.0640611
-0.00245518
-0.0641682
-0.0034243
-0.0642667
-0.00462556
-0.0644076
-0.00630003
-0.0645968
-0.00815493
-0.0648915
-0.0102415
-0.0652768
-0.0120523
-0.0656707
-0.0134636
-0.0661241
-0.0140103
-0.0120503
-0.0677179
-0.0650875
-0.00146248
-0.0652341
-0.0017662
-0.065385
-0.00230428
-0.0655751
-0.00323414
-0.0657818
-0.00441895
-0.0660549
-0.00602688
-0.0663966
-0.00781322
-0.066844
-0.00979416
-0.0673403
-0.011556
-0.067846
-0.0129579
-0.0686068
-0.0132495
-0.0109575
-0.0696996
-0.0639761
-0.0012339
-0.0642315
-0.00151084
-0.0645129
-0.0020229
-0.0648606
-0.00288644
-0.0652558
-0.0040237
-0.0657464
-0.00553636
-0.0663162
-0.00724335
-0.0669724
-0.00913795
-0.067624
-0.0109045
-0.0682824
-0.0122995
-0.0691227
-0.0124092
-0.0102728
-0.0698074
-0.060485
-0.000893515
-0.0608928
-0.0011031
-0.0613556
-0.00156003
-0.0619395
-0.00230261
-0.0626232
-0.00334002
-0.0634591
-0.0047004
-0.064412
-0.00629045
-0.0654638
-0.00808619
-0.0664995
-0.00986874
-0.0675232
-0.0112757
-0.0685508
-0.0113816
-0.00966431
-0.0691594
-0.0543261
-0.000494567
-0.0548377
-0.000591433
-0.0554452
-0.000952569
-0.0562421
-0.00150565
-0.0572225
-0.00235969
-0.0584491
-0.00347377
-0.0598887
-0.00485089
-0.0615141
-0.00646079
-0.0632028
-0.00817999
-0.0648949
-0.00958366
-0.0664357
-0.00984082
-0.00867897
-0.067421
-0.0454146
-0.00015761
-0.0458697
-0.00013639
-0.0464594
-0.000362864
-0.047281
-0.000683979
-0.0483773
-0.00126341
-0.0498258
-0.00202531
-0.0516345
-0.0030422
-0.0537986
-0.00429664
-0.0562228
-0.00575576
-0.0587726
-0.00703388
-0.061145
-0.00746839
-0.0068776
-0.0629464
-0.0341925
1.53721e-05
-0.0344205
9.16195e-05
-0.0347836
2.15255e-07
-0.0353483
-0.000119271
-0.036214
-0.000397727
-0.0374704
-0.000768902
-0.0391958
-0.00131675
-0.0414489
-0.00204354
-0.0442172
-0.00298747
-0.0473494
-0.00390175
-0.0504614
-0.00435638
-0.00419205
-0.0531469
-0.0213996
3.40428e-05
-0.0213891
8.11327e-05
-0.0214561
6.7196e-05
-0.0216304
5.50407e-05
-0.0220176
-1.05543e-05
-0.0226873
-9.92236e-05
-0.0237557
-0.000248307
-0.0253362
-0.000463084
-0.0275327
-0.00079099
-0.0302799
-0.00115449
-0.0332451
-0.00139124
-0.00139953
-0.0360376
-0.0074972
-0.00741607
-0.00734887
-0.00729383
-0.00730439
-0.00740361
-0.00765192
-0.008115
-0.00890599
-0.0100605
-0.0114517
-0.0128512
-0.0186848
-0.00484258
-0.0183801
-0.000304729
-0.018585
0.000204882
-0.0200238
0.00143887
-0.023016
0.00299219
-0.0289103
0.00589425
-0.0397987
0.0108884
0.0135346
-0.0457961
-0.00557816
-0.0449738
-0.00112709
-0.0457409
0.000972028
-0.0475817
0.00327969
-0.0498334
0.00524387
-0.0526742
0.00873509
-0.0551556
0.0133698
0.0117124
-0.0608898
-0.00584185
-0.0600097
-0.00200713
-0.0601677
0.00112997
-0.0602283
0.00334034
-0.0600984
0.00511394
-0.0593287
0.00796539
-0.0570517
0.0110928
0.00799402
-0.0672602
-0.00629961
-0.0662662
-0.00300109
-0.0654666
0.000330415
-0.0641625
0.00203624
-0.0626091
0.00356055
-0.0601366
0.00549289
-0.0565005
0.00745659
0.00482687
-0.0690592
-0.00694001
-0.0680099
-0.00405035
-0.0666083
-0.00107119
-0.064786
0.000213862
-0.0626964
0.00147102
-0.0597325
0.00252892
-0.0559178
0.00364193
0.00224241
-0.0691671
-0.00758033
-0.0681477
-0.0050697
-0.0665663
-0.00265264
-0.0646657
-0.00168668
-0.0624438
-0.000750895
-0.0594223
-0.000492615
-0.0556276
-0.000152769
-5.18303e-05
-0.068756
-0.00798375
-0.0679084
-0.00591722
-0.0664287
-0.00413234
-0.0646231
-0.00349228
-0.0624062
-0.00296786
-0.0594259
-0.00347293
-0.0556157
-0.00396292
-0.00233421
-0.067601
-0.00780377
-0.0672174
-0.00630076
-0.0661515
-0.00519831
-0.0646459
-0.00499786
-0.062586
-0.00502772
-0.0597401
-0.00631889
-0.0558935
-0.0078095
-0.00489435
-0.0641419
-0.00660827
-0.0646965
-0.00574617
-0.0645614
-0.00533342
-0.0638618
-0.00569741
-0.0624284
-0.00646113
-0.0601262
-0.00862116
-0.0564871
-0.0114486
-0.00804809
-0.0555205
-0.00423464
-0.0573635
-0.00390324
-0.0587138
-0.00398313
-0.0596233
-0.00478783
-0.0598333
-0.00625122
-0.0592541
-0.00920029
-0.057055
-0.0136478
-0.0117697
-0.038822
-0.00145022
-0.0413713
-0.00135399
-0.0438909
-0.00146349
-0.0466109
-0.00206782
-0.0494438
-0.00341835
-0.0525145
-0.00612955
-0.0551454
-0.0110169
-0.0135818
-0.0143015
-0.0156555
-0.0171189
-0.0191868
-0.0226051
-0.0287347
-0.0397515
)
;

boundaryField
{
    walls
    {
        type            calculated;
        value           uniform 0;
    }
    inlet
    {
        type            calculated;
        value           nonuniform List<scalar> 
12
(
-0.0533333
-0.0533333
-0.0533333
-0.0533333
-0.0533333
-0.0533333
-0.0533333
-0.0533333
-0.0533333
-0.0533333
-0.0533333
-0.0533333
)
;
    }
    outlet
    {
        type            calculated;
        value           nonuniform List<scalar> 
20
(
0.00120676
0.00346745
0.00558683
0.00757465
0.00944017
0.0111928
0.0128407
0.0143905
0.0454874
0.0539916
0.0602069
0.0638307
0.0649549
0.0637476
0.0601446
0.0539271
0.0450777
0.0340195
0.021381
0.00753125
)
;
    }
}


// ************************************************************************* //
