/*--------------------------------*- C++ -*----------------------------------*\
  =========                 |
  \\      /  F ield         | OpenFOAM: The Open Source CFD Toolbox
   \\    /   O peration     | Website:  https://openfoam.org
    \\  /    A nd           | Version:  8
     \\/     M anipulation  |
\*---------------------------------------------------------------------------*/
FoamFile
{
    version     2.0;
    format      ascii;
    class       volVectorField;
    location    "2";
    object      U;
}
// * * * * * * * * * * * * * * * * * * * * * * * * * * * * * * * * * * * * * //

dimensions      [0 1 -1 0 0 0 0];

internalField   nonuniform List<vector> 
336
(
(-0.601368 -0.000728857 -1.16055e-18)
(-0.578804 -0.000614113 -1.67811e-18)
(-0.567809 -0.000888521 -6.75871e-19)
(-0.539857 -0.0013508 -3.14812e-18)
(-0.505337 -0.00205146 -1.14714e-18)
(-0.449657 -0.00313339 -1.77684e-18)
(-0.368878 -0.00456162 -5.27157e-19)
(-0.263146 -0.00609927 -3.98067e-18)
(-0.106025 -0.00793137 -1.07742e-18)
(0.0240783 -0.00738153 -2.96348e-18)
(0.255121 -0.00629599 -1.90093e-18)
(0.150215 0.0158153 -9.61593e-19)
(-1.73108 -0.00370362 -3.46716e-18)
(-1.66866 -0.00395969 -5.04849e-18)
(-1.63721 -0.00528149 -2.41561e-18)
(-1.55847 -0.00805235 -9.51984e-18)
(-1.46406 -0.0117705 -3.40927e-18)
(-1.31406 -0.0175199 -5.35504e-18)
(-1.10359 -0.0245565 -1.49312e-18)
(-0.830668 -0.0328319 -1.18314e-17)
(-0.436279 -0.0400646 -3.1776e-18)
(-0.109897 -0.0418764 -8.19678e-18)
(0.486787 -0.0299418 -5.70922e-18)
(0.264814 0.0610083 -2.90879e-18)
(-2.7909 -0.00946722 -5.60244e-18)
(-2.6938 -0.0113428 -8.57204e-18)
(-2.64441 -0.0145888 -2.41858e-18)
(-2.52119 -0.0222068 -1.46143e-17)
(-2.37759 -0.0317544 -5.70436e-18)
(-2.15185 -0.0465069 -9.04414e-18)
(-1.84377 -0.0637645 -2.08948e-18)
(-1.44739 -0.0850128 -1.90863e-17)
(-0.886933 -0.100117 -5.1916e-18)
(-0.422599 -0.111767 -1.29987e-17)
(0.45281 -0.0735717 -9.10971e-18)
(0.194642 0.119002 -4.92585e-18)
(-3.78492 -0.0174407 -8.00291e-18)
(-3.65906 -0.0220961 -1.2011e-17)
(-3.59523 -0.027898 -5.78307e-18)
(-3.43573 -0.04226 -1.91472e-17)
(-3.25542 -0.059471 -8.2553e-18)
(-2.97429 -0.08601 -1.30115e-17)
(-2.60055 -0.116193 -7.74303e-18)
(-2.12281 -0.154156 -2.63138e-17)
(-1.46024 -0.178047 -7.23901e-18)
(-0.907793 -0.206491 -1.68229e-17)
(0.16487 -0.133507 -1.14235e-17)
(-0.073295 0.159499 -7.09165e-18)
(-4.71778 -0.0270495 -1.00588e-17)
(-4.57021 -0.0353564 -1.39188e-17)
(-4.4964 -0.0441071 -1.01458e-17)
(-4.31083 -0.0663728 -2.17054e-17)
(-4.10765 -0.0921231 -1.10908e-17)
(-3.79264 -0.131754 -1.67285e-17)
(-3.38398 -0.175909 -1.35307e-17)
(-2.86408 -0.23205 -3.15492e-17)
(-2.15487 -0.264937 -1.27873e-17)
(-1.55623 -0.315516 -2.01039e-17)
(-0.365131 -0.205842 -1.33604e-17)
(-0.564964 0.152351 -9.57267e-18)
(-5.5942 -0.037766 -1.1464e-17)
(-5.43311 -0.0502895 -1.48725e-17)
(-5.35448 -0.0621244 -1.27433e-17)
(-5.15452 -0.092831 -2.54955e-17)
(-4.94275 -0.127266 -1.4277e-17)
(-4.61527 -0.180244 -2.00834e-17)
(-4.19981 -0.238322 -1.48787e-17)
(-3.67259 -0.31269 -3.14577e-17)
(-2.96308 -0.354577 -1.85962e-17)
(-2.35334 -0.431327 -2.34717e-17)
(-1.12157 -0.282801 -1.53514e-17)
(-1.30712 0.0596779 -1.25224e-17)
(-6.41829 -0.0489967 -1.20842e-17)
(-6.25265 -0.0658853 -1.51287e-17)
(-6.17457 -0.0806209 -1.31779e-17)
(-5.97241 -0.119676 -2.48461e-17)
(-5.76557 -0.162281 -1.75963e-17)
(-5.44532 -0.22799 -2.28287e-17)
(-5.04706 -0.29917 -2.08869e-17)
(-4.54159 -0.390844 -2.82101e-17)
(-3.86899 -0.442193 -2.42578e-17)
(-3.27703 -0.546047 -2.5034e-17)
(-2.08229 -0.357207 -1.74971e-17)
(-2.29819 -0.174181 -1.59772e-17)
(-7.19303 -0.0603226 -1.20277e-17)
(-7.0318 -0.0809699 -1.45853e-17)
(-6.95931 -0.0983538 -1.29428e-17)
(-6.76638 -0.144969 -2.55693e-17)
(-6.57594 -0.194761 -2.08595e-17)
(-6.27937 -0.271917 -2.44736e-17)
(-5.91701 -0.355159 -2.39926e-17)
(-5.45562 -0.462271 -2.70378e-17)
(-4.8484 -0.52589 -2.95364e-17)
(-4.29683 -0.649079 -2.73925e-17)
(-3.21616 -0.442895 -1.98537e-17)
(-3.46483 -0.537576 -1.97017e-17)
(-8.52537 -0.0812286 -1.10488e-17)
(-8.38695 -0.106664 -1.21934e-17)
(-8.33231 -0.129547 -1.11338e-17)
(-8.1736 -0.187975 -2.39335e-17)
(-8.02881 -0.249602 -2.49531e-17)
(-7.79781 -0.345338 -2.58788e-17)
(-7.52459 -0.449298 -2.73941e-17)
(-7.17219 -0.579762 -2.90729e-17)
(-6.72109 -0.672879 -3.134e-17)
(-6.27625 -0.802168 -3.11388e-17)
(-5.52858 -0.665849 -2.44919e-17)
(-5.61504 -1.0633 -2.60305e-17)
(-10.1208 -0.103073 -9.16323e-18)
(-10.0535 -0.130562 -1.17417e-17)
(-10.0361 -0.161626 -9.16499e-18)
(-9.96337 -0.228371 -2.22037e-17)
(-9.90458 -0.302555 -2.36053e-17)
(-9.80314 -0.414059 -2.35519e-17)
(-9.685 -0.536382 -2.54052e-17)
(-9.534 -0.682172 -2.70126e-17)
(-9.34802 -0.801206 -2.95909e-17)
(-9.18354 -0.90909 -3.12178e-17)
(-8.985 -0.88786 -3.25033e-17)
(-9.08286 -1.01818 -3.73631e-17)
(-11.2871 -0.109721 -5.2783e-18)
(-11.2799 -0.135308 -7.28726e-18)
(-11.2825 -0.170211 -6.22791e-18)
(-11.2755 -0.237667 -1.42529e-17)
(-11.268 -0.316581 -1.50237e-17)
(-11.2563 -0.431162 -1.65477e-17)
(-11.2353 -0.557118 -1.80723e-17)
(-11.2209 -0.702307 -2.02926e-17)
(-11.2035 -0.82441 -2.26707e-17)
(-11.2427 -0.92098 -2.86348e-17)
(-11.3283 -0.934978 -2.67048e-17)
(-11.4824 -0.897117 -3.57374e-17)
(-11.9672 -0.107297 -9.71387e-19)
(-11.9922 -0.130026 -1.55122e-18)
(-11.9971 -0.166262 7.8645e-20)
(-12.0234 -0.231484 -5.60668e-18)
(-12.0312 -0.311145 -5.1356e-18)
(-12.0626 -0.423109 -6.67569e-18)
(-12.0781 -0.546445 -6.32985e-18)
(-12.1251 -0.685726 -1.01182e-17)
(-12.1738 -0.805677 -8.12132e-18)
(-12.2989 -0.900197 -1.40509e-17)
(-12.4681 -0.921747 -1.05132e-17)
(-12.6371 -0.807018 -1.79943e-17)
(-12.1783 -0.101012 1.18476e-19)
(-12.227 -0.122248 -2.49583e-19)
(-12.232 -0.158538 -2.0071e-19)
(-12.2841 -0.221278 -1.86955e-18)
(-12.3005 -0.300043 5.29241e-18)
(-12.3635 -0.407567 2.46638e-18)
(-12.3985 -0.526141 7.42145e-18)
(-12.481 -0.658156 -5.14644e-18)
(-12.5551 -0.774766 4.3147e-18)
(-12.7099 -0.867021 -1.79516e-18)
(-12.8797 -0.882035 2.28432e-18)
(-13.0246 -0.741236 -6.17342e-18)
(-11.952 -0.0900272 1.97468e-18)
(-12.0353 -0.110332 1.59141e-18)
(-12.0488 -0.145592 4.27196e-18)
(-12.1397 -0.205334 3.23368e-18)
(-12.179 -0.282037 4.91642e-18)
(-12.2891 -0.384346 3.56209e-18)
(-12.3599 -0.49809 4.48689e-18)
(-12.4915 -0.624 -1.19914e-18)
(-12.6011 -0.73872 4.89066e-18)
(-12.7846 -0.827458 1.35134e-18)
(-12.9483 -0.832557 6.75929e-18)
(-13.07 -0.693857 4.74809e-18)
(-11.2765 -0.0713955 4.66485e-18)
(-11.4008 -0.0888848 5.50869e-18)
(-11.4321 -0.121725 3.26555e-18)
(-11.5723 -0.17599 3.804e-18)
(-11.6529 -0.248596 3.60133e-18)
(-11.8288 -0.34373 8.77706e-18)
(-11.965 -0.452275 1.03146e-19)
(-12.176 -0.573148 6.04155e-19)
(-12.3607 -0.688087 1.46126e-18)
(-12.6092 -0.774783 -1.77199e-18)
(-12.8096 -0.776049 2.10145e-18)
(-12.9512 -0.655897 -4.01723e-19)
(-10.1104 -0.0454066 4.7871e-18)
(-10.2569 -0.0562852 4.10457e-18)
(-10.306 -0.084266 4.03705e-18)
(-10.482 -0.128398 1.52329e-18)
(-10.6081 -0.19244 -1.6971e-18)
(-10.8487 -0.275597 -1.32848e-18)
(-11.0686 -0.375222 -5.17482e-18)
(-11.3811 -0.488662 -2.83932e-18)
(-11.6839 -0.603018 -3.79714e-18)
(-12.0486 -0.690228 -3.38657e-18)
(-12.356 -0.698033 -1.75914e-18)
(-12.5896 -0.607614 -2.08586e-18)
(-8.45068 -0.0186806 3.63634e-18)
(-8.57517 -0.0202423 3.64856e-18)
(-8.62497 -0.0398341 -2.4366e-19)
(-8.79341 -0.0686594 1.17576e-18)
(-8.93719 -0.116884 -1.12072e-18)
(-9.20284 -0.180173 1.81148e-18)
(-9.48263 -0.261778 -3.92511e-18)
(-9.87708 -0.359283 -5.72725e-18)
(-10.3025 -0.465793 -5.33878e-18)
(-10.8081 -0.552567 -8.6588e-18)
(-11.2774 -0.574575 -5.8841e-18)
(-11.6728 -0.520524 -7.44007e-18)
(-6.37671 -0.00118314 2.93505e-18)
(-6.44155 0.00419769 2.51216e-18)
(-6.46523 -0.00526701 -1.7099e-18)
(-6.5747 -0.0171466 8.82222e-19)
(-6.68155 -0.0435694 -1.67298e-18)
(-6.89717 -0.0794542 -8.15242e-19)
(-7.1562 -0.131054 -4.24448e-18)
(-7.54345 -0.198415 -8.74637e-18)
(-8.0109 -0.281518 -7.68907e-18)
(-8.59403 -0.358122 -1.09988e-17)
(-9.19218 -0.392243 -9.30186e-18)
(-9.74492 -0.372377 -1.21413e-17)
(-4.00654 0.00346347 1.84539e-18)
(-4.01515 0.00929766 1.33967e-18)
(-4.00432 0.00733141 -1.12904e-18)
(-4.03808 0.0059951 7.42668e-19)
(-4.07406 -0.00200948 -6.62396e-19)
(-4.18075 -0.0124509 3.64978e-19)
(-4.32931 -0.0312378 -3.18829e-18)
(-4.5829 -0.0597103 -5.29735e-18)
(-4.93283 -0.102762 -5.07717e-18)
(-5.41439 -0.15112 -7.47554e-18)
(-5.963 -0.182818 -7.51888e-18)
(-6.51331 -0.184093 -9.6935e-18)
(-1.4098 0.00137663 8.32991e-19)
(-1.39959 0.00346059 2.73483e-18)
(-1.38067 0.00382979 -4.28055e-19)
(-1.3725 0.00440012 3.4042e-19)
(-1.36285 0.00349471 4.75954e-19)
(-1.37523 0.00321383 4.13485e-18)
(-1.40266 0.00108355 1.5812e-18)
(-1.4699 -0.00328975 -1.6747e-18)
(-1.5845 -0.0125244 -2.84603e-19)
(-1.77151 -0.0260979 -2.59489e-18)
(-2.01549 -0.0386391 -2.69023e-18)
(-2.28332 -0.0434216 -3.97632e-18)
(-2.87437 -0.106568 -1.09909e-17)
(-3.67881 -0.0324969 -1.76492e-17)
(-3.33899 -0.0159352 -2.05118e-17)
(-3.64194 0.0227816 -3.5482e-17)
(-3.96729 0.0715129 -1.62959e-17)
(-4.8129 0.173083 -1.78348e-17)
(-6.06565 0.354156 -2.59844e-19)
(-7.94982 0.390414 -3.20905e-18)
(-8.07022 -0.2807 -3.49999e-17)
(-8.6721 -0.032217 -4.47415e-17)
(-8.27504 0.0313179 -4.71478e-17)
(-8.88788 0.167554 -5.70294e-17)
(-9.10325 0.296372 -5.55534e-17)
(-9.73542 0.527527 -7.05018e-17)
(-9.90529 0.814767 -5.88707e-17)
(-9.92926 0.750081 -5.1847e-17)
(-11.1884 -0.303336 -3.65329e-17)
(-11.3959 -0.0638742 -4.48853e-17)
(-11.1305 0.0953474 -4.48685e-17)
(-11.4425 0.237484 -5.16726e-17)
(-11.2801 0.361333 -2.13363e-17)
(-11.3262 0.568953 -3.48647e-17)
(-10.7135 0.783134 8.60461e-18)
(-10.1024 0.599226 -1.67689e-17)
(-12.5567 -0.341047 -1.56166e-17)
(-12.5322 -0.127263 -2.12466e-17)
(-12.3069 0.0684554 -1.81346e-17)
(-12.2683 0.178107 -2.2431e-17)
(-11.9084 0.277581 1.42423e-17)
(-11.5687 0.42036 -1.40229e-17)
(-10.7303 0.558317 2.3224e-17)
(-10.0632 0.378338 -8.74454e-18)
(-12.9724 -0.391593 8.07231e-18)
(-12.8564 -0.199477 4.91474e-18)
(-12.6206 -0.0130652 1.47607e-17)
(-12.4018 0.0700318 6.14451e-18)
(-11.9881 0.151064 4.30073e-17)
(-11.4741 0.235666 -4.87719e-18)
(-10.6539 0.321385 5.26627e-17)
(-10.0341 0.205099 6.79002e-17)
(-13.0169 -0.436328 6.64271e-18)
(-12.8838 -0.267469 5.69804e-18)
(-12.6441 -0.108364 1.18926e-17)
(-12.3739 -0.0434958 1.21749e-17)
(-11.9574 0.0212389 2.49593e-19)
(-11.3875 0.0576514 -1.57599e-18)
(-10.6151 0.0999721 6.10089e-18)
(-10.0178 0.0631784 -5.30115e-18)
(-12.9316 -0.468064 3.23514e-18)
(-12.8288 -0.32659 -8.50208e-19)
(-12.6154 -0.201878 -7.65575e-18)
(-12.3552 -0.152362 -1.06534e-17)
(-11.9547 -0.108077 -1.99332e-17)
(-11.3779 -0.115137 -1.91635e-17)
(-10.6217 -0.117197 -3.48565e-17)
(-10.0081 -0.0692991 -4.74277e-17)
(-12.6723 -0.476234 1.04939e-19)
(-12.662 -0.367923 -2.43334e-19)
(-12.5308 -0.281877 8.12255e-19)
(-12.3336 -0.253066 1.86805e-18)
(-11.9869 -0.23683 -1.73116e-17)
(-11.439 -0.288201 -4.5482e-18)
(-10.6797 -0.340664 -1.34392e-17)
(-10.003 -0.209788 -3.7447e-18)
(-11.9363 -0.43966 -4.9947e-18)
(-12.1052 -0.371236 -2.64194e-18)
(-12.1491 -0.328858 -9.52305e-19)
(-12.1125 -0.333068 -3.74715e-18)
(-11.9213 -0.359235 -1.93346e-18)
(-11.4954 -0.463444 -2.76226e-18)
(-10.7817 -0.579592 3.25999e-20)
(-10.0119 -0.381375 -1.97253e-18)
(-10.2075 -0.333736 -8.80047e-18)
(-10.6039 -0.303734 -1.08801e-17)
(-10.9054 -0.302744 -1.60898e-18)
(-11.1555 -0.347994 -7.42063e-18)
(-11.2984 -0.43075 6.25216e-18)
(-11.2165 -0.600016 -6.12462e-18)
(-10.7743 -0.802242 5.82521e-18)
(-10.0481 -0.601962 -4.45225e-18)
(-7.0277 -0.170765 -9.80441e-18)
(-7.52298 -0.159666 -1.06921e-17)
(-7.99196 -0.172165 -1.60336e-17)
(-8.50501 -0.230252 -1.86049e-17)
(-9.07666 -0.341588 1.62744e-17)
(-9.62181 -0.547487 -8.65837e-18)
(-9.9385 -0.826371 6.24391e-18)
(-9.89676 -0.753213 -3.80382e-18)
(-2.54902 -0.0416637 -6.40049e-18)
(-2.80891 -0.0363303 -3.40342e-18)
(-3.06349 -0.0348854 -4.57976e-18)
(-3.38205 -0.0488739 -5.65967e-18)
(-3.88572 -0.0876962 3.92621e-18)
(-4.74146 -0.181919 -2.48272e-18)
(-6.05881 -0.358022 1.54654e-18)
(-7.94201 -0.391963 -7.59098e-19)
)
;

boundaryField
{
    walls
    {
        type            noSlip;
    }
    inlet
    {
        type            fixedValue;
        value           uniform (-10 0 0);
    }
    outlet
    {
        type            pressureInletOutletVelocity;
        value           nonuniform List<vector> 
20
(
(-0.601368 -0.000728857 -1.16055e-18)
(-1.73108 -0.00370362 -3.46716e-18)
(-2.7909 -0.00946722 -5.60244e-18)
(-3.78492 -0.0174407 -8.00291e-18)
(-4.71778 -0.0270495 -1.00588e-17)
(-5.5942 -0.037766 -1.1464e-17)
(-6.41829 -0.0489967 -1.20842e-17)
(-7.19303 -0.0603226 -1.20277e-17)
(-8.52537 -0.0812286 -1.10488e-17)
(-10.1208 -0.103073 -9.16323e-18)
(-11.2871 -0.109721 -5.2783e-18)
(-11.9672 -0.107297 -9.71387e-19)
(-12.1783 -0.101012 1.18476e-19)
(-11.952 -0.0900272 1.97468e-18)
(-11.2765 -0.0713955 4.66485e-18)
(-10.1104 -0.0454066 4.7871e-18)
(-8.45068 -0.0186806 3.63634e-18)
(-6.37671 -0.00118314 2.93505e-18)
(-4.00654 0.00346347 1.84539e-18)
(-1.4098 0.00137663 8.32991e-19)
)
;
    }
}


// ************************************************************************* //
